Title
53317
    1DOPC     N    1   4.388   4.397   5.247 -0.2733  0.5785 -0.0213
    1DOPC   C12    2   4.500   4.352   5.149  0.7626  0.2492  0.3357
    1DOPC  H12A    3   4.590   4.328   5.204  0.2738 -1.1175  0.5689
    1DOPC  H12B    4   4.518   4.435   5.082 -1.1364 -1.6682 -2.7813
    1DOPC   C13    5   4.273   4.449   5.170  0.1699 -0.0484  0.2028
    1DOPC  H13A    6   4.234   4.373   5.103  0.3549  1.0363 -1.1807
    1DOPC  H13B    7   4.194   4.487   5.234  0.4510  3.6078 -1.3966
    1DOPC  H13C    8   4.299   4.533   5.107 -0.4192 -1.9020 -2.6880
    1DOPC   C14    9   4.435   4.518   5.326 -0.0151  0.1284  0.2280
    1DOPC  H14A   10   4.529   4.502   5.377 -1.0084 -2.5494  1.3800
    1DOPC  H14B   11   4.448   4.603   5.260  2.6533 -0.7836 -0.5543
    1DOPC  H14C   12   4.356   4.535   5.398 -1.7676  0.7365 -1.7374
    1DOPC   C15   13   4.348   4.285   5.342  0.3045  0.6880  0.4461
    1DOPC  H15A   14   4.334   4.198   5.279  2.7374 -1.5382  2.7501
    1DOPC  H15B   15   4.255   4.313   5.389  1.3179  0.4876  2.6912
    1DOPC  H15C   16   4.424   4.266   5.416  1.8414 -1.6780 -1.5956
    1DOPC   C11   17   4.460   4.231   5.061 -0.0905  0.0683 -0.9308
    1DOPC  H11A   18   4.363   4.251   5.012 -0.4734 -1.3486 -0.8036
    1DOPC  H11B   19   4.527   4.221   4.973  0.2764 -0.2836 -0.6170
    1DOPC     P   20   4.578   4.035   5.189 -0.7875 -0.0538 -0.1347
    1DOPC   O13   21   4.549   4.007   5.327 -0.1683  0.3620 -0.1486
    1DOPC   O14   22   4.702   4.105   5.158 -1.1571 -0.4513 -0.1294
    1DOPC   O12   23   4.455   4.109   5.129 -0.9908  0.2842 -0.0138
    1DOPC   O11   24   4.573   3.891   5.120 -0.3036 -0.3531  0.3543
    1DOPC    C1   25   4.512   3.867   4.994  0.1746 -0.2113 -0.3220
    1DOPC    HA   26   4.472   3.951   4.934 -0.3191 -0.4656 -0.3513
    1DOPC    HB   27   4.433   3.791   5.012  2.0572 -2.6223 -1.6143
    1DOPC    C2   28   4.610   3.814   4.879  0.0876 -0.6473  0.0833
    1DOPC    HS   29   4.549   3.799   4.788 -0.9820 -1.6826  0.9323
    1DOPC   O21   30   4.674   3.689   4.921 -0.2453  0.1902 -0.4223
    1DOPC   C21   31   4.580   3.594   4.941  0.2792  0.1222 -0.2378
    1DOPC   O22   32   4.464   3.598   4.903 -0.0609 -0.1066 -0.1405
    1DOPC   C22   33   4.637   3.473   5.017  0.5066 -0.0099  0.3840
    1DOPC   H2R   34   4.604   3.470   5.123  0.4938 -0.8533  0.3621
    1DOPC   H2S   35   4.748   3.474   5.014  0.5005  2.0014 -0.2884
    1DOPC    C3   36   4.712   3.927   4.831  1.0349  0.4204 -0.6837
    1DOPC    HX   37   4.762   3.933   4.930  1.3078 -2.6048 -0.5271
    1DOPC    HY   38   4.668   4.027   4.814  0.3701  0.5129  1.3232
    1DOPC   O31   39   4.810   3.888   4.734 -0.4033 -0.0053 -0.1238
    1DOPC   C31   40   4.897   3.980   4.697 -0.1268 -0.3811 -0.4906
    1DOPC   O32   41   4.905   4.091   4.746 -0.4897 -0.3213  1.1421
    1DOPC   C32   42   4.972   3.918   4.582 -0.4421  0.2251  1.0165
    1DOPC   H2X   43   5.065   3.872   4.621  1.2783  2.6381  0.0594
    1DOPC   H2Y   44   4.908   3.842   4.532 -0.8555  0.8582  0.5721
    1DOPC   C23   45   4.580   3.340   4.964  0.0456  0.4344 -0.3463
    1DOPC   H3R   46   4.470   3.338   4.957 -0.0098  0.3763  0.4550
    1DOPC   H3S   47   4.622   3.264   5.034 -2.3244 -0.7676 -0.1474
    1DOPC   C24   48   4.639   3.289   4.827  0.2675 -0.2848  0.2870
    1DOPC   H4R   49   4.748   3.272   4.832  0.6220  0.6263 -2.5702
    1DOPC   H4S   50   4.619   3.371   4.755 -0.4752 -0.9534 -0.2854
    1DOPC   C25   51   4.575   3.160   4.777  0.4622  0.8760 -0.1968
    1DOPC   H5R   52   4.471   3.198   4.765 -0.3171 -1.2115 -0.4090
    1DOPC   H5S   53   4.572   3.086   4.860  3.7202  1.0485  0.2283
    1DOPC   C26   54   4.627   3.099   4.650  0.2861  0.2383 -0.4487
    1DOPC   H6R   55   4.603   2.993   4.630 -4.2904  1.1054 -0.6682
    1DOPC   H6S   56   4.737   3.113   4.654  0.4551 -0.7069 -1.4329
    1DOPC   C27   57   4.576   3.181   4.528 -1.3521 -0.6318  0.0715
    1DOPC   H7R   58   4.618   3.284   4.537 -3.6151  0.6163 -2.0641
    1DOPC   H7S   59   4.468   3.207   4.539 -1.2630 -0.9645  1.8992
    1DOPC   C28   60   4.625   3.142   4.385  0.2394 -0.1488 -0.8103
    1DOPC   H8R   61   4.586   3.041   4.364  0.7101 -0.3105 -0.9149
    1DOPC   H8S   62   4.734   3.127   4.400  0.3748  2.8203  2.6411
    1DOPC   C29   63   4.598   3.237   4.279 -0.0499 -0.2932  0.3940
    1DOPC   H9R   64   4.497   3.274   4.258  0.1572 -0.0218 -0.1420
    1DOPC  C210   65   4.686   3.273   4.180 -0.1807  0.1704  0.2630
    1DOPC  H10R   66   4.650   3.332   4.094  3.1480  0.2918 -1.1688
    1DOPC  C211   67   4.825   3.225   4.177 -0.5005  0.0447 -0.0854
    1DOPC  H11R   68   4.839   3.116   4.193  2.0418  0.1438 -1.1939
    1DOPC  H11S   69   4.886   3.278   4.253 -1.5684  1.4464 -0.1589
    1DOPC  C212   70   4.889   3.247   4.038 -0.2152  0.1714 -0.3759
    1DOPC  H12R   71   4.994   3.212   4.040 -1.2560 -3.1836  1.4331
    1DOPC  H12S   72   4.892   3.357   4.018 -1.9016  0.4487  0.6707
    1DOPC  C213   73   4.813   3.178   3.918 -0.1585  0.6261 -0.2084
    1DOPC  H13R   74   4.709   3.212   3.900 -0.6823 -0.6140  0.3841
    1DOPC  H13S   75   4.813   3.071   3.951  1.1007  0.3851 -0.9279
    1DOPC  C214   76   4.881   3.168   3.777 -0.9755 -0.0940 -0.6832
    1DOPC  H14R   77   4.985   3.135   3.798  0.4004  3.1716 -1.7151
    1DOPC  H14S   78   4.899   3.264   3.723  4.2167 -1.6158 -2.2578
    1DOPC  C215   79   4.808   3.057   3.702 -0.3597 -0.0812  0.8061
    1DOPC  H15R   80   4.810   2.958   3.752  0.1105 -2.3806 -3.2704
    1DOPC  H15S   81   4.857   3.048   3.603 -2.3263  1.2932 -0.3811
    1DOPC  C216   82   4.660   3.082   3.675  1.0642  0.1917  0.0531
    1DOPC  H16R   83   4.648   3.180   3.623  0.5783 -0.5232 -1.2081
    1DOPC  H16S   84   4.597   3.095   3.766  1.1971  0.8096  0.0689
    1DOPC  C217   85   4.587   2.975   3.598  0.4986  0.0248 -0.1720
    1DOPC  H17R   86   4.604   2.878   3.650 -0.1995  0.5401  1.0505
    1DOPC  H17S   87   4.648   2.965   3.505  2.6009  4.2450  0.4971
    1DOPC  C218   88   4.438   3.012   3.570  0.3106 -0.6967  0.4833
    1DOPC  H18R   89   4.441   3.119   3.539  1.0212 -0.3917  1.5613
    1DOPC  H18S   90   4.383   3.006   3.666  0.1033  1.1890  0.5135
    1DOPC  H18T   91   4.394   2.937   3.501 -0.7004 -1.7288  2.1776
    1DOPC   C33   92   4.988   4.013   4.463  0.3560 -0.5086  0.1945
    1DOPC   H3X   93   5.051   4.100   4.490 -0.0693  0.2246 -1.1122
    1DOPC   H3Y   94   4.887   4.057   4.445 -0.0218 -1.7030 -0.7645
    1DOPC   C34   95   5.018   3.944   4.326  0.8634  0.3926 -0.2419
    1DOPC   H4X   96   4.986   4.016   4.248 -0.1668 -0.6608 -0.8249
    1DOPC   H4Y   97   4.945   3.860   4.320 -0.4942  1.5843 -1.0580
    1DOPC   C35   98   5.162   3.907   4.315  0.2304  0.3169 -0.1110
    1DOPC   H5X   99   5.208   3.858   4.403  0.5054  0.7475 -0.0119
    1DOPC   H5Y  100   5.233   3.992   4.306  3.7512 -2.3633  0.1429
    1DOPC   C36  101   5.190   3.820   4.195  0.3684  0.0100 -0.2644
    1DOPC   H6X  102   5.294   3.784   4.210 -0.4933 -1.8113  1.9730
    1DOPC   H6Y  103   5.112   3.741   4.192 -0.0125  0.3527  0.4752
    1DOPC   C37  104   5.172   3.893   4.057 -0.3460 -0.0467  0.6736
    1DOPC   H7X  105   5.063   3.913   4.055 -0.4029 -0.3629 -0.5823
    1DOPC   H7Y  106   5.218   3.993   4.072  0.5541 -0.2059 -0.8098
    1DOPC   C38  107   5.240   3.831   3.934 -0.6105  0.5394 -0.1834
    1DOPC   H8X  108   5.349   3.841   3.954 -0.6573 -0.8700  0.9795
    1DOPC   H8Y  109   5.213   3.888   3.843  2.3064  3.1047  0.4117
    1DOPC   C39  110   5.222   3.684   3.917  0.4186  0.7163 -0.1037
    1DOPC   H9X  111   5.244   3.633   4.012  0.6436  1.8780  0.4982
    1DOPC  C310  112   5.165   3.612   3.820  0.9738 -1.3317  0.7861
    1DOPC  H10X  113   5.150   3.503   3.824 -1.0980 -1.0557  1.8012
    1DOPC  C311  114   5.122   3.674   3.694 -0.5124 -0.2847  0.3077
    1DOPC  H11X  115   5.191   3.759   3.678  0.5515 -1.4501 -1.7764
    1DOPC  H11Y  116   5.016   3.705   3.690 -0.6409 -0.7287  0.1731
    1DOPC  C312  117   5.142   3.571   3.582 -0.3971 -0.3074 -0.4344
    1DOPC  H12X  118   5.085   3.479   3.605 -2.7693  1.6631  2.2371
    1DOPC  H12Y  119   5.250   3.544   3.588  0.0218  1.2173 -0.5573
    1DOPC  C313  120   5.107   3.636   3.444 -0.1923 -0.3032 -0.3613
    1DOPC  H13X  121   5.012   3.691   3.462  0.5268  1.4289 -1.6084
    1DOPC  H13Y  122   5.173   3.717   3.408 -2.0853  1.8646  0.7495
    1DOPC  C314  123   5.084   3.535   3.335 -0.1011 -0.0505  0.1151
    1DOPC  H14X  124   5.181   3.486   3.309 -0.6163 -0.7086 -0.6227
    1DOPC  H14Y  125   5.005   3.461   3.360 -0.7299  0.4440 -0.3543
    1DOPC  C315  126   5.061   3.599   3.199 -0.1196 -0.6888  0.7507
    1DOPC  H15X  127   5.143   3.670   3.177  0.2580 -0.9389  1.3354
    1DOPC  H15Y  128   4.971   3.663   3.206 -1.0060 -1.6639 -0.9798
    1DOPC  C316  129   5.035   3.500   3.084  0.2606 -0.4438 -0.0970
    1DOPC  H16X  130   4.957   3.431   3.120  0.9069 -1.2925 -0.2803
    1DOPC  H16Y  131   4.991   3.561   3.002 -1.0248 -1.1454  0.0478
    1DOPC  C317  132   5.160   3.423   3.039 -0.2572 -0.1723  0.1732
    1DOPC  H17X  133   5.243   3.496   3.026  1.0872 -1.7362 -0.3423
    1DOPC  H17Y  134   5.187   3.344   3.112 -0.7049  0.3114  0.8690
    1DOPC  C318  135   5.130   3.343   2.910 -0.2434  0.5130 -0.1277
    1DOPC  H18X  136   5.222   3.291   2.876  0.1382  2.7897 -2.9902
    1DOPC  H18Y  137   5.057   3.262   2.930  1.7034 -1.1740  0.3969
    1DOPC  H18Z  138   5.097   3.408   2.826  1.6864 -1.5891 -2.6943
    2DOPC     N  139   8.001   7.300   5.774 -0.3456 -0.1695  0.9877
    2DOPC   C12  140   7.969   7.334   5.631  0.1360 -0.1443 -0.9318
    2DOPC  H12A  141   8.050   7.380   5.577 -1.7222  2.5210 -1.7189
    2DOPC  H12B  142   7.899   7.417   5.633  0.1886 -0.1072 -0.6371
    2DOPC   C13  143   8.098   7.186   5.787 -1.0823  0.4137 -0.2253
    2DOPC  H13A  144   8.047   7.094   5.765  0.4035 -0.4201 -0.3279
    2DOPC  H13B  145   8.187   7.191   5.725 -0.1810 -3.8970  0.4149
    2DOPC  H13C  146   8.124   7.165   5.889 -1.9963 -2.5948 -0.5087
    2DOPC   C14  147   7.871   7.268   5.847  0.5681 -0.3296 -0.1183
    2DOPC  H14A  148   7.814   7.200   5.786 -0.4850  0.1659  0.2876
    2DOPC  H14B  149   7.878   7.215   5.941 -3.2489  1.6637  1.5235
    2DOPC  H14C  150   7.809   7.353   5.872  0.6355 -0.8281  1.9109
    2DOPC   C15  151   8.062   7.413   5.844  0.0342 -1.0246  0.0421
    2DOPC  H15A  152   8.155   7.434   5.793 -1.5769  1.5319 -2.1262
    2DOPC  H15B  153   8.081   7.391   5.948 -2.7101 -3.3836  0.1739
    2DOPC  H15C  154   8.012   7.509   5.839  2.5506  0.3197 -1.1294
    2DOPC   C11  155   7.915   7.217   5.540 -0.4993 -0.5800  0.1651
    2DOPC  H11A  156   7.907   7.260   5.438  1.9985  1.3557  0.6680
    2DOPC  H11B  157   7.990   7.136   5.530 -1.2410 -1.1600 -0.7887
    2DOPC     P  158   7.656   7.187   5.525 -0.2795  0.0789 -0.3366
    2DOPC   O13  159   7.615   7.319   5.573  0.1034 -0.0277  0.5294
    2DOPC   O14  160   7.571   7.070   5.562 -0.4709 -0.1222  0.3355
    2DOPC   O12  161   7.796   7.157   5.591  0.1830  0.0470  0.7533
    2DOPC   O11  162   7.686   7.188   5.369 -0.1314 -0.3231  0.3094
    2DOPC    C1  163   7.719   7.065   5.308  0.5017  0.4907 -0.4421
    2DOPC    HA  164   7.632   7.003   5.336  0.5608  1.3435  1.9298
    2DOPC    HB  165   7.813   7.017   5.343  1.4195  1.0348 -2.0668
    2DOPC    C2  166   7.724   7.067   5.151  0.0514  0.2323 -0.0558
    2DOPC    HS  167   7.730   6.958   5.129  1.0182  0.5290 -1.3680
    2DOPC   O21  168   7.834   7.136   5.087  0.1064  0.1125  0.0029
    2DOPC   C21  169   7.946   7.070   5.103  0.4671 -0.5102  0.3425
    2DOPC   O22  170   7.961   6.959   5.152 -0.0364 -0.2506 -0.5593
    2DOPC   C22  171   8.060   7.158   5.049 -0.0595  0.2624  0.2494
    2DOPC   H2R  172   8.116   7.189   5.140  1.2228  0.0712 -0.4583
    2DOPC   H2S  173   8.026   7.255   5.006  0.9959  0.7553  0.5040
    2DOPC    C3  174   7.592   7.135   5.102 -0.2570 -0.2290  0.1012
    2DOPC    HX  175   7.598   7.246   5.100  0.1624 -0.2057  1.5790
    2DOPC    HY  176   7.516   7.106   5.177  0.5857  0.5221  1.2798
    2DOPC   O31  177   7.565   7.085   4.967  0.2224  0.4571 -0.2692
    2DOPC   C31  178   7.464   6.999   4.953  0.1601  0.5032  0.9279
    2DOPC   O32  179   7.389   6.957   5.035  0.2837  0.1781 -0.3138
    2DOPC   C32  180   7.471   6.949   4.809  0.0138 -0.0706  0.0840
    2DOPC   H2X  181   7.547   6.872   4.789 -0.2841 -0.0296 -1.3068
    2DOPC   H2Y  182   7.377   6.894   4.786 -0.8737  0.9996  0.9792
    2DOPC   C23  183   8.144   7.088   4.950 -0.8157  0.6048 -0.0760
    2DOPC   H3R  184   8.184   7.000   5.003  1.8255  3.1106  2.4937
    2DOPC   H3S  185   8.237   7.151   4.949 -1.3865  1.4927  0.7257
    2DOPC   C24  186   8.079   7.053   4.815 -0.6537 -0.2794 -0.7765
    2DOPC   H4R  187   7.988   6.994   4.841  0.3879 -0.8706  1.9187
    2DOPC   H4S  188   8.152   6.992   4.758 -1.4375 -3.6586  1.5412
    2DOPC   C25  189   8.034   7.171   4.736  0.4928  1.1639 -0.3788
    2DOPC   H5R  190   7.988   7.238   4.812  0.7502  0.3520  0.5032
    2DOPC   H5S  191   7.959   7.147   4.658  1.0597 -0.3986 -0.4801
    2DOPC   C26  192   8.145   7.256   4.667  0.3550 -0.1821  0.0094
    2DOPC   H6R  193   8.223   7.296   4.735 -1.8432  0.4692  2.3300
    2DOPC   H6S  194   8.086   7.335   4.616  2.2283  0.9719 -0.4482
    2DOPC   C27  195   8.226   7.175   4.553 -0.7454 -0.5781  0.1944
    2DOPC   H7R  196   8.139   7.134   4.497 -0.1459 -0.0081 -1.1867
    2DOPC   H7S  197   8.286   7.095   4.601 -1.2641 -2.7877 -2.6103
    2DOPC   C28  198   8.318   7.262   4.450  0.7649  0.4192  0.1740
    2DOPC   H8R  199   8.386   7.320   4.517  0.1856  0.6574  0.5564
    2DOPC   H8S  200   8.252   7.335   4.398  0.1482  0.1867  0.6283
    2DOPC   C29  201   8.376   7.174   4.345  0.3032  0.4358 -0.3779
    2DOPC   H9R  202   8.301   7.110   4.295  0.9417  0.6761 -1.6843
    2DOPC  C210  203   8.502   7.175   4.298  0.0504 -0.0808 -0.4741
    2DOPC  H10R  204   8.528   7.107   4.215  0.9460 -1.9968  1.2753
    2DOPC  C211  205   0.072   7.277   4.345  0.2080  0.1471  0.2125
    2DOPC  H11R  206   0.037   7.360   4.411 -0.0559  1.9250 -2.0587
    2DOPC  H11S  207   0.108   7.344   4.264 -0.9885  2.5915  1.5767
    2DOPC  C212  208   0.189   7.200   4.408  0.2829  0.9894  0.1535
    2DOPC  H12R  209   0.246   7.143   4.332  0.0673  0.7439  0.1756
    2DOPC  H12S  210   0.159   7.136   4.493  0.7713 -0.1664 -0.5163
    2DOPC  C213  211   0.299   7.286   4.484 -0.1405 -0.0826 -0.4371
    2DOPC  H13R  212   0.358   7.206   4.532 -0.9915  1.1842  3.0053
    2DOPC  H13S  213   0.250   7.344   4.565 -1.7375 -0.7270 -0.8985
    2DOPC  C214  214   0.390   7.376   4.394  0.5473  0.1392  0.4149
    2DOPC  H14R  215   0.330   7.457   4.348  0.2352  0.0190  0.6070
    2DOPC  H14S  216   0.440   7.316   4.315 -0.3131 -1.2580  0.8814
    2DOPC  C215  217   0.502   7.458   4.474  0.6222 -0.3087  0.0638
    2DOPC  H15R  218   0.590   7.477   4.410  2.3944 -3.6590  1.3127
    2DOPC  H15S  219   0.551   7.393   4.550  1.9806  0.9337  0.3078
    2DOPC  C216  220   0.448   7.585   4.547 -0.7262 -0.5047  0.7255
    2DOPC  H16R  221   0.374   7.560   4.627 -2.3735  1.7564  0.0179
    2DOPC  H16S  222   0.388   7.654   4.484 -0.1504 -1.3473 -0.8007
    2DOPC  C217  223   0.562   7.675   4.595 -0.1076 -0.8982  0.3654
    2DOPC  H17R  224   0.619   7.709   4.507  0.5866 -1.1553  0.7074
    2DOPC  H17S  225   0.637   7.617   4.654  0.6691  0.6095  0.9302
    2DOPC  C218  226   0.522   7.795   4.678 -0.3900  0.1929 -0.1393
    2DOPC  H18R  227   0.601   7.873   4.672 -1.9521  1.9743  0.9713
    2DOPC  H18S  228   0.504   7.766   4.784 -2.0141  2.0976  0.1744
    2DOPC  H18T  229   0.424   7.834   4.642 -0.6724 -0.4589 -0.0852
    2DOPC   C33  230   7.466   7.063   4.705 -0.2778 -0.3124 -0.1903
    2DOPC   H3X  231   7.555   7.129   4.695  0.4209 -1.1697  0.3035
    2DOPC   H3Y  232   7.376   7.124   4.730  0.1919  0.3254 -0.0283
    2DOPC   C34  233   7.435   7.016   4.568  0.7785 -0.2352  0.0616
    2DOPC   H4X  234   7.420   7.107   4.506  3.6631 -0.8608 -1.7647
    2DOPC   H4Y  235   7.342   6.958   4.550  2.0111 -1.3598 -3.5217
    2DOPC   C35  236   7.546   6.930   4.505 -0.1549  0.5324 -0.4546
    2DOPC   H5X  237   7.508   6.833   4.467 -0.1238  0.5295 -0.4800
    2DOPC   H5Y  238   7.618   6.887   4.577  2.2003  1.7800 -1.9230
    2DOPC   C36  239   7.642   6.996   4.407  0.0943  0.1197  1.0846
    2DOPC   H6X  240   7.588   7.007   4.311  0.5854 -0.9554  0.6753
    2DOPC   H6Y  241   7.679   7.096   4.441 -3.4477  2.2542 -0.6699
    2DOPC   C37  242   7.760   6.900   4.385  0.1940  0.2954 -0.0765
    2DOPC   H7X  243   7.808   6.876   4.482  0.5488 -0.3584 -0.4092
    2DOPC   H7Y  244   7.722   6.803   4.345 -0.4602  0.9832 -1.1630
    2DOPC   C38  245   7.867   6.967   4.295 -0.5665 -0.1832  0.1546
    2DOPC   H8X  246   7.861   7.076   4.318  1.9187  0.3007 -1.2275
    2DOPC   H8Y  247   7.841   6.955   4.188 -0.1191 -0.1814  0.0436
    2DOPC   C39  248   8.005   6.911   4.316 -0.5686  0.0700  0.6661
    2DOPC   H9X  249   8.071   6.976   4.375 -0.4319  1.5112 -1.0123
    2DOPC  C310  250   8.045   6.797   4.267  0.0486 -0.0474  0.3399
    2DOPC  H10X  251   8.144   6.764   4.301  0.7247 -0.3039 -1.7346
    2DOPC  C311  252   7.971   6.692   4.184  0.5594  0.3224 -0.4044
    2DOPC  H11X  253   7.879   6.732   4.138  0.1375  0.4764  0.5381
    2DOPC  H11Y  254   7.950   6.612   4.259  4.6654  0.5207  1.2010
    2DOPC  C312  255   8.071   6.623   4.090  0.2752 -0.2891  0.5423
    2DOPC  H12X  256   8.030   6.520   4.088 -2.9364  0.8864  0.0790
    2DOPC  H12Y  257   8.170   6.627   4.139  0.4387  1.4854  0.1172
    2DOPC  C313  258   8.086   6.700   3.960 -0.2956  0.6956 -0.1210
    2DOPC  H13X  259   7.982   6.702   3.921 -1.3762  2.3442  2.5779
    2DOPC  H13Y  260   8.127   6.803   3.968 -0.9519  0.9276  0.3500
    2DOPC  C314  261   8.182   6.614   3.869  0.3618  0.2691  0.1696
    2DOPC  H14X  262   8.284   6.658   3.870  1.0964 -1.2984  2.0628
    2DOPC  H14Y  263   8.185   6.512   3.915 -0.2385  0.1210 -0.1157
    2DOPC  C315  264   8.114   6.604   3.732 -0.5476 -0.4187  0.3064
    2DOPC  H15X  265   8.120   6.706   3.689  0.9091 -1.1696 -1.3863
    2DOPC  H15Y  266   8.007   6.577   3.741 -0.4252 -0.9510  0.2131
    2DOPC  C316  267   8.184   6.500   3.643 -0.2092  0.2007  0.4347
    2DOPC  H16X  268   8.288   6.524   3.612 -0.0275 -2.1671 -1.0642
    2DOPC  H16Y  269   8.177   6.406   3.701 -0.1647 -0.1325 -0.0913
    2DOPC  C317  270   8.112   6.476   3.512  0.7387  0.3019  0.0211
    2DOPC  H17X  271   8.006   6.461   3.542  0.2823 -0.1800 -1.7178
    2DOPC  H17Y  272   8.111   6.573   3.458 -1.4414  0.1678 -0.2640
    2DOPC  C318  273   8.167   6.356   3.438 -0.5057 -0.5863  0.2092
    2DOPC  H18X  274   8.185   6.262   3.494  1.6801 -0.8494 -0.8479
    2DOPC  H18Y  275   8.093   6.330   3.359  1.5625 -1.3519 -1.5910
    2DOPC  H18Z  276   8.265   6.389   3.397  0.0720 -0.0082  1.9880
    3DOPC     N  277   6.216   8.105   5.462  0.4375  0.1459  0.1178
    3DOPC   C12  278   6.251   8.215   5.356  0.3326  0.0519  1.0056
    3DOPC  H12A  279   6.324   8.284   5.393 -0.1292  0.2580  1.5438
    3DOPC  H12B  280   6.165   8.278   5.342  1.8501  1.5122 -3.2771
    3DOPC   C13  281   6.340   8.046   5.512 -0.3694 -0.1303  0.1962
    3DOPC  H13A  282   6.406   8.119   5.556  0.1698 -0.1804 -0.5065
    3DOPC  H13B  283   6.318   7.966   5.580  0.6045 -1.5234 -1.0731
    3DOPC  H13C  284   6.397   8.003   5.431 -0.7487  0.2054 -0.2534
    3DOPC   C14  285   6.138   7.990   5.400 -0.5813  0.8605  0.5714
    3DOPC  H14A  286   6.193   7.942   5.321 -2.1659  2.1139 -1.3867
    3DOPC  H14B  287   6.127   7.919   5.481  1.0594  0.9510  0.9040
    3DOPC  H14C  288   6.043   8.017   5.356 -0.0544  0.9765 -0.5231
    3DOPC   C15  289   6.139   8.152   5.579  0.4227  0.5174 -0.1815
    3DOPC  H15A  290   6.039   8.168   5.542  0.0733 -1.7073 -0.3282
    3DOPC  H15B  291   6.170   8.248   5.617 -1.4290  1.2371 -0.3779
    3DOPC  H15C  292   6.139   8.083   5.661  2.8612  0.9663  0.2560
    3DOPC   C11  293   6.300   8.161   5.221  0.4687 -0.5335  0.2357
    3DOPC  H11A  294   6.232   8.088   5.172 -1.9386 -0.2691  2.9238
    3DOPC  H11B  295   6.286   8.253   5.159  1.6832 -0.0560  0.6488
    3DOPC     P  296   6.562   8.215   5.220 -0.0248  0.2067  0.5161
    3DOPC   O13  297   6.666   8.155   5.304  0.6052  0.3993 -0.6211
    3DOPC   O14  298   6.518   8.354   5.251 -0.5067 -0.5455  0.3946
    3DOPC   O12  299   6.435   8.121   5.219  0.1774  0.0966 -0.6022
    3DOPC   O11  300   6.617   8.212   5.073  0.6200  0.0470  0.0626
    3DOPC    C1  301   6.648   8.092   5.006  0.9503 -0.4080  0.0968
    3DOPC    HA  302   6.601   8.001   5.050 -0.1052 -0.3792 -0.9163
    3DOPC    HB  303   6.757   8.076   5.020  0.8907 -0.1842  0.8168
    3DOPC    C2  304   6.592   8.101   4.863  0.3572 -0.5771 -0.5056
    3DOPC    HS  305   6.607   8.004   4.811 -1.2037  1.0032 -4.2974
    3DOPC   O21  306   6.666   8.212   4.799 -0.1436 -0.2419  0.2977
    3DOPC   C21  307   6.782   8.176   4.766 -1.0504  0.6847  0.7260
    3DOPC   O22  308   6.829   8.065   4.784  0.0517  0.0595 -0.2422
    3DOPC   C22  309   6.844   8.286   4.687  0.1616 -0.2247  0.4719
    3DOPC   H2R  310   6.875   8.359   4.764  1.2450  0.6162 -0.7118
    3DOPC   H2S  311   6.769   8.339   4.624  1.1089  0.2983 -0.2325
    3DOPC    C3  312   6.445   8.133   4.870  0.5800  0.6198  0.1501
    3DOPC    HX  313   6.440   8.240   4.899 -1.5815  0.6114 -0.0457
    3DOPC    HY  314   6.383   8.075   4.941 -1.4212  2.6610  0.2014
    3DOPC   O31  315   6.388   8.112   4.735  0.1674 -0.4766 -0.0555
    3DOPC   C31  316   6.275   8.178   4.721 -0.8066  0.5631 -0.2465
    3DOPC   O32  317   6.220   8.245   4.806 -0.5428  0.3080  0.0017
    3DOPC   C32  318   6.234   8.162   4.581 -0.4434  0.2950 -0.0925
    3DOPC   H2X  319   6.313   8.171   4.504 -0.8409  1.8846 -0.3360
    3DOPC   H2Y  320   6.191   8.061   4.563 -2.3289  1.2439 -1.2685
    3DOPC   C23  321   6.971   8.244   4.608 -0.2003 -0.7456  0.4093
    3DOPC   H3R  322   7.047   8.189   4.668  0.8624 -0.0640 -0.2970
    3DOPC   H3S  323   7.029   8.333   4.577  2.2690 -1.7167  1.9411
    3DOPC   C24  324   6.956   8.173   4.470  0.1000 -0.2838  0.2051
    3DOPC   H4R  325   6.898   8.238   4.401  1.3462 -0.5460 -1.1296
    3DOPC   H4S  326   6.904   8.075   4.476  0.2027 -0.5728 -2.5611
    3DOPC   C25  327   7.091   8.145   4.404 -0.0461  0.7904 -0.4964
    3DOPC   H5R  328   7.170   8.101   4.469  0.8930  0.4147 -1.8353
    3DOPC   H5S  329   7.131   8.245   4.377 -0.6129  0.6320 -2.0227
    3DOPC   C26  330   7.081   8.070   4.267  0.3281 -0.6642  0.2590
    3DOPC   H6R  331   6.995   8.118   4.216  1.0254  0.9937  0.5845
    3DOPC   H6S  332   7.049   7.964   4.270  1.0890 -0.8981  0.3769
    3DOPC   C27  333   7.205   8.088   4.170  0.1422 -0.2370  0.1563
    3DOPC   H7R  334   7.301   8.064   4.220  0.5222 -1.5463 -1.1380
    3DOPC   H7S  335   7.220   8.195   4.148  4.4561 -0.3350  1.6345
    3DOPC   C28  336   7.205   8.006   4.034 -0.0594  0.1551 -0.0245
    3DOPC   H8R  337   7.102   8.016   3.994  0.0247 -2.1720 -0.9864
    3DOPC   H8S  338   7.219   7.897   4.052 -3.0998 -0.4006 -0.5205
    3DOPC   C29  339   7.311   8.050   3.940 -0.0563 -0.3507 -0.1458
    3DOPC   H9R  340   7.413   8.030   3.977 -0.3982 -1.4461  0.2531
    3DOPC  C210  341   7.290   8.096   3.815 -0.2737 -1.1483  0.2120
    3DOPC  H10R  342   7.380   8.140   3.769  0.5094  1.6594  3.9130
    3DOPC  C211  343   7.161   8.109   3.740  0.3354 -0.4624 -0.6241
    3DOPC  H11R  344   7.114   8.201   3.782  0.0459 -0.3885 -1.0968
    3DOPC  H11S  345   7.093   8.025   3.767 -0.4303 -0.0246 -1.1578
    3DOPC  C212  346   7.165   8.133   3.592 -0.0489 -0.5694  0.1575
    3DOPC  H12R  347   7.200   8.046   3.532 -0.2126 -0.2631 -0.3852
    3DOPC  H12S  348   7.230   8.221   3.573  0.8692 -0.7167  2.2829
    3DOPC  C213  349   7.023   8.149   3.529 -0.3691  0.0360 -0.7567
    3DOPC  H13R  350   6.976   8.235   3.581 -5.2821 -2.3474 -0.6117
    3DOPC  H13S  351   6.968   8.059   3.565 -0.2983 -1.0992 -3.2349
    3DOPC  C214  352   7.013   8.159   3.375  0.4278  0.1727  0.3297
    3DOPC  H14R  353   6.907   8.181   3.351  0.6220 -0.3556 -1.0843
    3DOPC  H14S  354   7.023   8.061   3.324 -2.0057 -0.7846  1.4979
    3DOPC  C215  355   7.092   8.279   3.314  0.5110  0.5980 -0.0100
    3DOPC  H15R  356   7.198   8.249   3.299  0.2689 -0.8167  0.8378
    3DOPC  H15S  357   7.087   8.361   3.388 -1.6217  1.2188 -0.7825
    3DOPC  C216  358   7.052   8.334   3.174  0.3312  0.0964  0.4245
    3DOPC  H16R  359   6.943   8.347   3.161  0.3550 -1.4969 -2.1401
    3DOPC  H16S  360   7.078   8.250   3.104 -2.2183  0.9412 -1.6784
    3DOPC  C217  361   7.135   8.454   3.117 -0.3393  0.2413  0.2415
    3DOPC  H17R  362   7.242   8.427   3.115 -0.7697 -1.6994  0.7897
    3DOPC  H17S  363   7.114   0.003   3.187  1.4007  1.2795 -0.4330
    3DOPC  C218  364   7.090   8.501   2.977  0.0838 -0.2028 -0.1618
    3DOPC  H18R  365   6.984   8.530   2.990 -0.4440 -1.2504 -1.7953
    3DOPC  H18S  366   7.116   8.432   2.893 -1.0339  0.5183 -1.1361
    3DOPC  H18T  367   7.147   0.058   2.951 -0.2142  0.2406  0.7324
    3DOPC   C33  368   6.114   8.242   4.541  0.6918 -0.1878 -0.5153
    3DOPC   H3X  369   6.041   8.238   4.625  0.1177  1.5310 -0.8974
    3DOPC   H3Y  370   6.059   8.186   4.462 -0.0738 -2.5374  1.5484
    3DOPC   C34  371   6.145   8.384   4.494 -0.0397 -0.5282 -0.1186
    3DOPC   H4X  372   6.232   8.387   4.424 -0.9506 -0.5231 -1.2882
    3DOPC   H4Y  373   6.170   8.446   4.582 -0.7246  0.4660 -0.6077
    3DOPC   C35  374   6.034   8.458   4.413  0.8139 -0.2926 -1.2666
    3DOPC   H5X  375   6.064   0.026   4.384 -0.1584  0.0111 -1.2006
    3DOPC   H5Y  376   5.940   8.471   4.469 -0.2398  0.2772 -3.0726
    3DOPC   C36  377   5.988   8.377   4.289  0.1116  0.0528  1.2209
    3DOPC   H6X  378   6.072   8.350   4.221  0.0157  1.2208  0.6198
    3DOPC   H6Y  379   5.929   8.289   4.323  1.2094 -1.5901 -0.8275
    3DOPC   C37  380   5.884   8.455   4.205 -0.3726  0.2929 -0.2275
    3DOPC   H7X  381   5.823   8.385   4.145 -0.1573 -1.6894  1.7622
    3DOPC   H7Y  382   5.821   8.494   4.288  1.0510  1.2933  0.4254
    3DOPC   C38  383   5.943   0.036   4.127 -0.3935  0.2003 -0.3825
    3DOPC   H8X  384   6.027   0.005   4.061 -0.5378 -0.2287 -0.3620
    3DOPC   H8Y  385   5.997   0.114   4.186 -0.9119 -0.1023  0.5082
    3DOPC   C39  386   5.830   0.101   4.051 -0.1741 -0.3102 -0.0286
    3DOPC   H9X  387   5.790   0.197   4.085 -0.4190 -0.6715  0.7368
    3DOPC  C310  388   5.774   0.056   3.938  0.3604  0.3718  0.0355
    3DOPC  H10X  389   5.689   0.113   3.897  0.6826  0.6372 -0.2648
    3DOPC  C311  390   5.811   8.471   3.860  0.1404 -0.0597 -0.2008
    3DOPC  H11X  391   5.731   8.394   3.853 -0.9945  0.9548  1.0801
    3DOPC  H11Y  392   5.904   8.422   3.896 -0.3942 -0.0675  1.2395
    3DOPC  C312  393   5.840   8.519   3.718 -0.1416  0.0339 -0.1026
    3DOPC  H12X  394   5.928   0.052   3.718 -0.8561  1.0284  1.5508
    3DOPC  H12Y  395   5.750   0.033   3.676  0.2896  0.5538 -0.4362
    3DOPC  C313  396   5.871   8.406   3.620 -0.1119  0.2283  0.1331
    3DOPC  H13X  397   5.925   8.453   3.535  0.1207 -0.8888 -0.3454
    3DOPC  H13Y  398   5.928   8.320   3.661  1.7936  0.8063 -1.1729
    3DOPC  C314  399   5.744   8.356   3.548  0.0221 -0.7240 -0.5190
    3DOPC  H14X  400   5.694   8.445   3.503 -0.0194 -0.9459 -0.9046
    3DOPC  H14Y  401   5.771   8.294   3.461 -2.7824 -0.3939 -1.7036
    3DOPC  C315  402   5.645   8.268   3.631  0.1780  0.2249 -0.1534
    3DOPC  H15X  403   5.551   8.259   3.571 -0.9168 -1.8467  1.7169
    3DOPC  H15Y  404   5.604   8.312   3.724 -0.7455  0.4279 -0.6485
    3DOPC  C316  405   5.695   8.128   3.664  0.1736 -0.3742  0.1641
    3DOPC  H16X  406   5.721   8.088   3.564  0.2934  1.7269 -0.6924
    3DOPC  H16Y  407   5.789   8.141   3.722  0.1441  1.5317 -0.1435
    3DOPC  C317  408   5.607   8.031   3.743  0.6116 -0.6328  0.2332
    3DOPC  H17X  409   5.535   7.986   3.671 -0.2470 -0.8752  1.2112
    3DOPC  H17Y  410   5.667   7.942   3.773  0.0772 -2.3280 -3.2284
    3DOPC  C318  411   5.537   8.085   3.872  0.3541  0.2623  0.3579
    3DOPC  H18X  412   5.474   8.002   3.909 -0.1451  1.3338  2.0331
    3DOPC  H18Y  413   5.613   8.124   3.943  1.1223 -2.5539  1.2100
    3DOPC  H18Z  414   5.473   8.169   3.838 -0.5582 -0.7160 -0.4286
    4DOPC     N  415   4.138   8.426   6.023  0.1095 -0.5692  0.3129
    4DOPC   C12  416   4.049   8.413   5.896 -0.1898  0.4139  0.1199
    4DOPC  H12A  417   3.954   8.462   5.911  0.1550  1.9585 -2.1757
    4DOPC  H12B  418   4.029   8.309   5.877  1.4752  0.4044 -1.9236
    4DOPC   C13  419   4.272   8.351   6.009 -0.1138  0.8600 -0.1741
    4DOPC  H13A  420   4.250   8.245   6.010  0.3479  0.7659 -0.0366
    4DOPC  H13B  421   4.326   8.375   5.919  1.2711 -1.1695  0.0418
    4DOPC  H13C  422   4.326   8.392   6.093 -1.7417 -1.3124  2.0883
    4DOPC   C14  423   4.064   8.355   6.129  0.2030 -0.1835 -0.1793
    4DOPC  H14A  424   4.030   8.255   6.104  2.1508 -0.4647 -2.0305
    4DOPC  H14B  425   4.126   8.346   6.217  1.8234 -0.2306 -1.2668
    4DOPC  H14C  426   3.983   8.416   6.165  0.4586  0.0334  0.0302
    4DOPC   C15  427   4.156   0.030   6.059  0.1039  0.0074 -0.7812
    4DOPC  H15A  428   4.205   0.081   5.977  1.4623  0.1543  0.1012
    4DOPC  H15B  429   4.222   0.049   6.142  0.2407  0.6221 -1.0233
    4DOPC  H15C  430   4.066   0.086   6.080  0.1466  0.1235 -0.9047
    4DOPC   C11  431   4.119   8.463   5.769  0.2685  0.9502  0.1467
    4DOPC  H11A  432   4.218   8.413   5.766  0.1460  0.5969  1.4182
    4DOPC  H11B  433   4.070   8.432   5.674  1.6179  1.2060 -0.6558
    4DOPC     P  434   4.022   0.158   5.699  0.2044  0.0939  0.1300
    4DOPC   O13  435   4.016   0.298   5.756 -0.5877  0.0837  0.0963
    4DOPC   O14  436   3.893   0.082   5.707  0.1604  0.4470  0.4517
    4DOPC   O12  437   4.132   0.070   5.765 -0.5552  0.2958  0.0688
    4DOPC   O11  438   4.069   0.167   5.549 -0.3155 -0.4108  0.0122
    4DOPC    C1  439   4.053   0.269   5.458  0.5613  0.1037  1.0741
    4DOPC    HA  440   4.081   0.227   5.359  2.8715  2.1939  0.7417
    4DOPC    HB  441   4.129   0.351   5.460 -1.3841  2.0326  0.2438
    4DOPC    C2  442   3.906   0.314   5.444  0.0376  0.0158  0.3317
    4DOPC    HS  443   3.879   0.370   5.536 -3.1444  2.9765 -2.1382
    4DOPC   O21  444   3.819   0.196   5.443 -0.2343  0.1982  0.4346
    4DOPC   C21  445   3.690   0.228   5.450  0.1190 -0.0601  0.0070
    4DOPC   O22  446   3.649   0.341   5.474 -0.3597  0.9672  0.4885
    4DOPC   C22  447   3.607   0.111   5.391  0.0441  1.1233 -0.1353
    4DOPC   H2R  448   3.503   0.115   5.430  0.5302 -0.4074  1.4507
    4DOPC   H2S  449   3.662   0.016   5.412  2.0220  1.7101 -2.2755
    4DOPC    C3  450   3.876   0.425   5.333  0.0145  0.2819 -0.5313
    4DOPC    HX  451   3.954   0.503   5.335  1.4441 -1.0366  2.3853
    4DOPC    HY  452   3.784   0.485   5.353  0.0208  0.6233 -1.4911
    4DOPC   O31  453   3.859   0.362   5.209  0.4322 -0.0787 -0.3854
    4DOPC   C31  454   3.957   0.349   5.120 -0.3692 -0.5301 -0.1030
    4DOPC   O32  455   4.067   0.396   5.138  0.3708  0.1234  0.7029
    4DOPC   C32  456   3.912   0.264   4.999  0.1520  0.6509  0.5049
    4DOPC   H2X  457   4.006   0.228   4.951 -0.7856 -0.6054 -0.4616
    4DOPC   H2Y  458   3.852   0.182   5.044  0.2178  0.1370 -0.3281
    4DOPC   C23  459   3.584   0.128   5.242  0.5385  0.0943  0.5344
    4DOPC   H3R  460   3.559   0.025   5.208  2.4144  0.5219 -2.5335
    4DOPC   H3S  461   3.678   0.147   5.186  0.7377 -2.4886 -0.1444
    4DOPC   C24  462   3.474   0.223   5.206 -0.9848  0.5061  0.2889
    4DOPC   H4R  463   3.516   0.324   5.228 -0.7064  0.3338  0.5449
    4DOPC   H4S  464   3.377   0.206   5.257 -0.5465 -0.4562  0.8187
    4DOPC   C25  465   3.445   0.229   5.056  0.2815  0.5092 -0.7646
    4DOPC   H5R  466   3.387   0.137   5.035  1.4128  0.0017 -1.7864
    4DOPC   H5S  467   3.541   0.241   5.002  0.1379  2.4908 -0.6833
    4DOPC   C26  468   3.345   0.354   5.027  0.2136  0.5509  0.0501
    4DOPC   H6R  469   3.393   0.433   5.088  2.3041 -1.6210  1.3869
    4DOPC   H6S  470   3.243   0.339   5.068  0.2270 -1.7680 -0.6230
    4DOPC   C27  471   3.346   0.383   4.876  0.4257  0.1786  0.9804
    4DOPC   H7R  472   3.315   0.287   4.830  3.7406 -0.3048 -0.5216
    4DOPC   H7S  473   3.447   0.384   4.831  0.5320  0.5061  1.2160
    4DOPC   C28  474   3.257   0.504   4.830  0.2158 -0.0337 -0.4789
    4DOPC   H8R  475   3.308   0.552   4.743 -0.3385  1.5220  0.0167
    4DOPC   H8S  476   3.245   0.579   4.910 -2.0876  2.0984 -2.6361
    4DOPC   C29  477   3.112   0.461   4.802 -0.3138  0.0453 -0.3529
    4DOPC   H9R  478   3.052   0.464   4.894  3.2842 -0.8930  2.2552
    4DOPC  C210  479   3.066   0.439   4.684 -0.2913 -0.7502  0.1667
    4DOPC  H10R  480   2.965   0.399   4.670 -0.1485 -0.5225 -1.8220
    4DOPC  C211  481   3.139   0.427   4.550 -0.8043  0.1081  0.1473
    4DOPC  H11R  482   3.124   0.320   4.524  0.5974  0.4914 -2.6304
    4DOPC  H11S  483   3.247   0.451   4.553 -0.3760 -1.7134  2.7864
    4DOPC  C212  484   3.059   0.498   4.434 -0.5178  0.1429  0.2445
    4DOPC  H12R  485   3.084   0.606   4.438  3.5202 -0.6672  0.7347
    4DOPC  H12S  486   2.949   0.484   4.448 -0.5615 -1.6942 -1.5484
    4DOPC  C213  487   3.095   0.451   4.290  0.3702  0.6602 -0.4343
    4DOPC  H13R  488   3.113   0.342   4.304 -0.1988  0.6310  0.0862
    4DOPC  H13S  489   3.189   0.507   4.266  1.3367 -0.0392  1.4638
    4DOPC  C214  490   2.992   0.483   4.179  0.4115  0.1684 -0.0204
    4DOPC  H14R  491   2.889   0.459   4.212  0.1204  0.1418 -0.9366
    4DOPC  H14S  492   3.021   0.433   4.084 -0.9863 -0.3660 -0.1860
    4DOPC  C215  493   3.003   0.629   4.138 -0.0595  0.1633 -0.1929
    4DOPC  H15R  494   3.099   0.637   4.082  0.4514 -0.9927  0.4834
    4DOPC  H15S  495   3.010   0.699   4.224 -0.6092  0.8876 -0.7278
    4DOPC  C216  496   2.890   0.676   4.046  0.0750  1.0625  0.1833
    4DOPC  H16R  497   2.874   0.593   3.974 -1.4995 -1.1571  2.8790
    4DOPC  H16S  498   2.926   0.773   4.004  0.8131  0.9113  0.4461
    4DOPC  C217  499   2.765   0.687   4.124 -0.3008  0.4996 -0.5405
    4DOPC  H17R  500   2.803   0.741   4.214  2.5569 -0.7209 -0.8925
    4DOPC  H17S  501   2.728   0.585   4.149  1.4777  0.1730  1.0142
    4DOPC  C218  502   2.662   0.777   4.060  0.1578  0.3339 -0.2892
    4DOPC  H18R  503   2.650   0.745   3.954  0.2399 -0.2855 -0.1137
    4DOPC  H18S  504   2.702   0.880   4.052 -2.9294  1.6068 -0.5886
    4DOPC  H18T  505   2.564   0.769   4.112  0.0647 -0.6950 -0.5884
    4DOPC   C33  506   3.827   0.355   4.903 -0.4482 -0.1309  0.2455
    4DOPC   H3X  507   3.899   0.429   4.861 -1.3612 -0.3452 -1.7939
    4DOPC   H3Y  508   3.756   0.412   4.967  0.6506  0.9839  0.5211
    4DOPC   C34  509   3.735   0.282   4.794 -0.6956 -0.5011 -0.1939
    4DOPC   H4X  510   3.657   0.347   4.747  0.1566  1.2153  0.6766
    4DOPC   H4Y  511   3.701   0.188   4.842  1.1786 -1.3917 -0.5121
    4DOPC   C35  512   3.813   0.221   4.677 -0.5644  0.0298 -0.1138
    4DOPC   H5X  513   3.738   0.183   4.605  1.9368 -0.6703 -2.5638
    4DOPC   H5Y  514   3.882   0.140   4.711 -0.1673 -0.0274 -1.0089
    4DOPC   C36  515   3.891   0.325   4.590  0.2628 -0.3607  0.8666
    4DOPC   H6X  516   3.958   0.392   4.648 -0.2121 -1.1270  2.3490
    4DOPC   H6Y  517   3.956   0.267   4.521  0.1391  1.2998 -0.7004
    4DOPC   C37  518   3.789   0.405   4.509 -0.0107  0.1971  0.8772
    4DOPC   H7X  519   3.687   0.362   4.510 -0.0118  0.1552 -0.0061
    4DOPC   H7Y  520   3.779   0.513   4.536 -0.5048  0.2122  0.6497
    4DOPC   C38  521   3.823   0.396   4.359  0.1468 -0.4314 -0.8869
    4DOPC   H8X  522   3.735   0.441   4.308 -0.2465 -0.8720 -0.6065
    4DOPC   H8Y  523   3.811   0.291   4.322 -2.5727 -0.2375 -0.7750
    4DOPC   C39  524   3.933   0.485   4.307  0.8523  0.2148  0.1336
    4DOPC   H9X  525   3.935   0.586   4.350 -3.0760  0.7058 -0.4563
    4DOPC  C310  526   4.024   0.461   4.209  0.5338 -0.1464 -1.3291
    4DOPC  H10X  527   4.091   0.544   4.180  1.4959 -0.1730  0.6543
    4DOPC  C311  528   4.013   0.333   4.130 -0.2781 -0.0744  0.6101
    4DOPC  H11X  529   3.960   0.245   4.171 -0.1691 -0.2522  0.3695
    4DOPC  H11Y  530   4.116   0.295   4.114 -0.6752 -0.3750 -1.5004
    4DOPC  C312  531   3.947   0.365   3.993  0.0110  0.0517 -0.3763
    4DOPC  H12X  532   3.947   0.265   3.945 -1.1141 -0.0143 -0.2696
    4DOPC  H12Y  533   3.998   0.448   3.940 -0.4626  1.4728  1.3131
    4DOPC  C313  534   3.802   0.418   3.996 -0.2235 -0.3702  0.3093
    4DOPC  H13X  535   3.738   0.354   4.061 -0.0213 -0.6893  0.1949
    4DOPC  H13Y  536   3.811   0.517   4.044  3.9840  0.0884 -1.0085
    4DOPC  C314  537   3.736   0.441   3.857  0.6598  0.1668 -0.1880
    4DOPC  H14X  538   3.763   0.346   3.806 -0.3352 -0.0151 -0.4006
    4DOPC  H14Y  539   3.625   0.447   3.868  0.3889  0.4235 -2.5174
    4DOPC  C315  540   3.791   0.556   3.775  1.0087 -0.3570  0.1514
    4DOPC  H15X  541   3.897   0.539   3.747  1.4560 -0.6023  1.8818
    4DOPC  H15Y  542   3.786   0.648   3.837  1.7472  0.1406 -0.5001
    4DOPC  C316  543   3.701   0.593   3.654  0.1905 -1.0428  0.5878
    4DOPC  H16X  544   3.717   0.516   3.575 -0.6409 -0.4404 -0.1817
    4DOPC  H16Y  545   3.595   0.582   3.687  0.5251 -0.8686  1.7825
    4DOPC  C317  546   3.709   0.735   3.593 -0.0134 -0.4156  0.3068
    4DOPC  H17X  547   3.685   0.806   3.675 -1.2429  0.0598 -0.4210
    4DOPC  H17Y  548   3.816   0.747   3.567 -0.5271  0.5651 -1.5896
    4DOPC  C318  549   3.621   0.754   3.471  0.1630  0.0475 -0.1128
    4DOPC  H18X  550   3.515   0.742   3.504 -0.2375 -0.1296 -1.4122
    4DOPC  H18Y  551   3.643   0.859   3.442  3.6016 -0.4170  0.4238
    4DOPC  H18Z  552   3.644   0.679   3.393 -0.8810 -1.5059  1.0029
    5DOPC     N  553   2.224   5.697   5.414  0.5545 -0.4006 -0.4810
    5DOPC   C12  554   2.366   5.643   5.382  0.4276 -0.3275  0.1984
    5DOPC  H12A  555   2.357   5.536   5.387 -0.2817 -0.4088 -1.7794
    5DOPC  H12B  556   2.425   5.673   5.467 -0.0213 -0.2778  0.4995
    5DOPC   C13  557   2.118   5.636   5.322  0.4929  0.5617  0.0698
    5DOPC  H13A  558   2.152   5.643   5.220  0.1050  0.8032 -0.0447
    5DOPC  H13B  559   2.110   5.533   5.353 -0.6444  0.5702 -0.1403
    5DOPC  H13C  560   2.021   5.683   5.338  0.2566 -0.3706  1.6675
    5DOPC   C14  561   2.222   5.843   5.412 -0.1208 -0.2297  0.0397
    5DOPC  H14A  562   2.241   5.883   5.313  1.3702  0.7053  0.6787
    5DOPC  H14B  563   2.121   5.869   5.442  0.8030  2.7198  0.9677
    5DOPC  H14C  564   2.289   5.894   5.479  1.5763 -1.2040 -0.8606
    5DOPC   C15  565   2.195   5.652   5.552 -0.5616  0.6008  0.3654
    5DOPC  H15A  566   2.197   5.547   5.574  1.3039  0.3693 -0.7017
    5DOPC  H15B  567   2.099   5.695   5.578  0.1060  2.4752 -0.0524
    5DOPC  H15C  568   2.267   5.691   5.622 -0.1167  0.8130 -0.1972
    5DOPC   C11  569   2.446   5.697   5.258 -0.5888 -0.1291  0.0953
    5DOPC  H11A  570   2.455   5.807   5.258 -0.2158 -0.1460 -1.1758
    5DOPC  H11B  571   2.549   5.658   5.275 -1.0149 -0.5775  1.7740
    5DOPC     P  572   2.397   5.517   5.073  0.0548  0.0690  0.0448
    5DOPC   O13  573   2.259   5.476   5.058 -0.3314 -0.1077 -0.2457
    5DOPC   O14  574   2.486   5.427   5.149  0.4188 -0.6613  0.7214
    5DOPC   O12  575   2.389   5.663   5.133 -0.2401 -0.1435 -0.0364
    5DOPC   O11  576   2.461   5.533   4.940  0.1948  0.1604  0.4007
    5DOPC    C1  577   2.464   5.656   4.857  0.0148 -0.0618 -0.0310
    5DOPC    HA  578   2.559   5.709   4.879 -0.2333  0.6282 -0.5656
    5DOPC    HB  579   2.383   5.728   4.881 -2.0372 -1.4945 -2.2054
    5DOPC    C2  580   2.472   5.616   4.708  0.2243  0.7958 -1.0990
    5DOPC    HS  581   2.399   5.537   4.683 -0.0049  1.4338 -2.5366
    5DOPC   O21  582   2.599   5.575   4.682  0.4143 -0.3850 -1.2324
    5DOPC   C21  583   2.624   5.487   4.576 -0.1588  0.2688 -0.4764
    5DOPC   O22  584   2.531   5.436   4.512 -0.2708 -0.7100  0.1871
    5DOPC   C22  585   2.772   5.466   4.546  1.3947  0.8649  0.4218
    5DOPC   H2R  586   2.788   5.384   4.472  0.5354  0.5491  0.5694
    5DOPC   H2S  587   2.828   5.423   4.631  1.2601  0.8557  0.5065
    5DOPC    C3  588   2.433   5.738   4.622 -0.5632  0.3000  0.5782
    5DOPC    HX  589   2.512   5.815   4.625 -1.0292  1.0228 -2.3338
    5DOPC    HY  590   2.340   5.781   4.665 -1.4522 -0.3782 -0.5727
    5DOPC   O31  591   2.426   5.693   4.488 -0.9593 -0.1002  0.0111
    5DOPC   C31  592   2.309   5.651   4.442  0.1771  0.7655 -0.1893
    5DOPC   O32  593   2.208   5.645   4.511  0.5896  0.5254  0.0887
    5DOPC   C32  594   2.325   5.589   4.303 -0.5391  0.4711 -0.5699
    5DOPC   H2X  595   2.382   5.659   4.237 -0.2139  0.7998  0.0517
    5DOPC   H2Y  596   2.381   5.493   4.307 -1.3004  0.0409  0.0856
    5DOPC   C23  597   2.852   5.590   4.516 -0.4738 -0.0930 -0.7620
    5DOPC   H3R  598   2.955   5.551   4.502 -0.1621  0.8291 -1.1351
    5DOPC   H3S  599   2.857   5.663   4.601  0.7054 -0.1003 -0.7976
    5DOPC   C24  600   2.816   5.657   4.387  0.2645 -0.1311  0.1021
    5DOPC   H4R  601   2.894   5.735   4.378  0.5467 -0.3975  0.2398
    5DOPC   H4S  602   2.717   5.706   4.400  0.3462 -0.5378  2.5981
    5DOPC   C25  603   2.802   5.572   4.264  0.1070  0.0047 -0.3026
    5DOPC   H5R  604   2.715   5.503   4.274 -0.0158  0.1671 -0.2319
    5DOPC   H5S  605   2.883   5.497   4.253 -0.7775 -0.9382 -0.4758
    5DOPC   C26  606   2.783   5.662   4.142  1.4750  0.3711  0.2932
    5DOPC   H6R  607   2.863   5.738   4.129 -0.3045  2.1475 -1.0066
    5DOPC   H6S  608   2.694   5.726   4.162  0.9053 -0.4681  0.4577
    5DOPC   C27  609   2.753   5.595   4.006 -0.8442  0.5136 -0.8811
    5DOPC   H7R  610   2.667   5.524   4.004 -0.2965 -0.1754 -0.3867
    5DOPC   H7S  611   2.839   5.539   3.964 -0.8529  0.9007 -1.4291
    5DOPC   C28  612   2.723   5.698   3.893 -0.3849  1.0018  0.3140
    5DOPC   H8R  613   2.800   5.776   3.906 -0.1640  0.5483  1.9947
    5DOPC   H8S  614   2.627   5.736   3.935  0.2917  1.3681  1.5749
    5DOPC   C29  615   2.720   5.649   3.752  0.4046  0.1432 -0.0334
    5DOPC   H9R  616   2.627   5.604   3.714  0.1676  0.6913 -0.1103
    5DOPC  C210  617   2.816   5.661   3.659  0.4861 -0.6516 -0.9458
    5DOPC  H10R  618   2.780   5.633   3.559  0.2129 -1.5852 -0.5906
    5DOPC  C211  619   2.956   5.729   3.666 -0.2173  0.2342 -0.4366
    5DOPC  H11R  620   3.034   5.650   3.658 -0.1595  0.4398 -2.1424
    5DOPC  H11S  621   2.972   5.778   3.764 -0.3469 -0.5104 -0.0346
    5DOPC  C212  622   2.974   5.847   3.564  0.4335  0.5305  0.1232
    5DOPC  H12R  623   2.893   5.922   3.548  0.0742 -0.2101 -1.8888
    5DOPC  H12S  624   2.989   5.805   3.462 -0.9355  2.2420 -0.8427
    5DOPC  C213  625   3.096   5.929   3.607  0.3177 -0.8847 -0.8373
    5DOPC  H13R  626   3.185   5.863   3.606  1.7522  0.9557 -1.7961
    5DOPC  H13S  627   3.079   5.970   3.709  0.1894  1.1903 -1.6377
    5DOPC  C214  628   3.129   6.048   3.514  1.0785 -0.5462  0.1192
    5DOPC  H14R  629   3.057   6.132   3.525  0.6734 -0.7364 -0.8994
    5DOPC  H14S  630   3.131   6.021   3.406  0.5611 -0.4721  0.0886
    5DOPC  C215  631   3.265   6.108   3.562  0.9225 -0.1409  0.0341
    5DOPC  H15R  632   3.348   6.034   3.558  1.4628  0.4901 -2.9051
    5DOPC  H15S  633   3.249   6.148   3.664 -0.2870  0.3212 -0.3150
    5DOPC  C216  634   3.303   6.220   3.459 -0.1978 -0.0658 -0.5216
    5DOPC  H16R  635   3.224   6.297   3.471 -0.7392 -0.7100  0.1522
    5DOPC  H16S  636   3.297   6.176   3.357 -1.4311 -2.8796  0.6459
    5DOPC  C217  637   3.440   6.284   3.478  0.0934  0.5550 -0.0621
    5DOPC  H17R  638   3.479   6.292   3.582  2.0381  0.5923 -0.7588
    5DOPC  H17S  639   3.441   6.382   3.425 -1.0466  1.3387  1.2603
    5DOPC  C218  640   3.540   6.202   3.404  0.4676  0.5504 -0.4434
    5DOPC  H18R  641   3.517   6.206   3.295  1.2752 -0.9093 -0.6946
    5DOPC  H18S  642   3.518   6.100   3.442  0.1284 -0.4039 -3.0032
    5DOPC  H18T  643   3.644   6.236   3.421 -0.6086  2.8803  2.1267
    5DOPC   C33  644   2.186   5.555   4.246  0.0350  0.2405  0.0247
    5DOPC   H3X  645   2.116   5.634   4.279 -0.4432 -0.3929  0.5658
    5DOPC   H3Y  646   2.138   5.465   4.291  1.7609  0.8136  3.3007
    5DOPC   C34  647   2.181   5.553   4.094  0.2321 -0.7970  0.9431
    5DOPC   H4X  648   2.236   5.465   4.052  1.0303  0.4191 -0.6813
    5DOPC   H4Y  649   2.238   5.642   4.060  2.2062 -1.8745  1.2998
    5DOPC   C35  650   2.035   5.545   4.039 -0.0532 -0.2639 -0.3363
    5DOPC   H5X  651   1.976   5.633   4.072 -0.1415 -0.5133  0.1874
    5DOPC   H5Y  652   1.977   5.464   4.089  0.5134 -0.5858 -0.1848
    5DOPC   C36  653   2.026   5.520   3.884  1.2923 -0.3254 -0.1463
    5DOPC   H6X  654   2.087   5.603   3.843 -1.4410  1.7688 -0.2574
    5DOPC   H6Y  655   2.072   5.423   3.857  0.8386 -0.8951  1.0905
    5DOPC   C37  656   1.888   5.523   3.832  0.0277  0.1577  0.1609
    5DOPC   H7X  657   1.830   5.440   3.876 -1.0340  0.3158 -0.8970
    5DOPC   H7Y  658   1.834   5.617   3.854 -3.0175 -1.1544 -1.0976
    5DOPC   C38  659   1.897   5.499   3.676  1.3008  0.1087  1.0316
    5DOPC   H8X  660   1.982   5.561   3.639  0.4170  0.7870  0.0920
    5DOPC   H8Y  661   1.807   5.544   3.631  0.3387 -2.5020  0.1430
    5DOPC   C39  662   1.912   5.356   3.631  0.0788  0.0638  0.0962
    5DOPC   H9X  663   2.011   5.338   3.587 -0.6596  0.1209 -1.6936
    5DOPC  C310  664   1.808   5.265   3.617  0.0278 -1.1678 -0.3720
    5DOPC  H10X  665   1.827   5.164   3.576  0.2961 -0.8795 -0.9729
    5DOPC  C311  666   1.670   5.300   3.647 -0.9787 -0.3812  0.1690
    5DOPC  H11X  667   1.673   5.386   3.718 -0.9598  1.0366 -1.4964
    5DOPC  H11Y  668   1.620   5.221   3.708  0.8333 -0.6047  1.4535
    5DOPC  C312  669   1.575   5.332   3.531 -0.1809  0.2458 -0.2506
    5DOPC  H12X  670   1.583   5.264   3.444 -2.8823  0.2536 -0.5785
    5DOPC  H12Y  671   1.610   5.433   3.501  0.3756  0.4069  0.8783
    5DOPC  C313  672   1.424   5.347   3.557  0.7094  0.2018  0.0593
    5DOPC  H13X  673   1.392   5.400   3.465  0.7119  0.4232  0.1859
    5DOPC  H13Y  674   1.376   5.247   3.565  1.0989  0.0354  0.3350
    5DOPC  C314  675   1.384   5.429   3.683 -0.6829  0.6085 -0.1276
    5DOPC  H14X  676   1.417   5.378   3.776  0.9287 -0.0012 -0.9896
    5DOPC  H14Y  677   1.445   5.522   3.679  3.1999 -1.6911 -4.2556
    5DOPC  C315  678   1.232   5.452   3.697  0.0472 -0.5648 -0.1347
    5DOPC  H15X  679   1.215   5.488   3.801  1.2288  0.2709 -0.2128
    5DOPC  H15Y  680   1.183   5.352   3.693 -0.7629 -0.3502  2.3997
    5DOPC  C316  681   1.155   5.543   3.600  0.1768 -0.9487  0.2215
    5DOPC  H16X  682   1.127   5.634   3.658  0.6407 -1.6891  1.6381
    5DOPC  H16Y  683   1.226   5.569   3.518  1.5032 -1.6130  1.1326
    5DOPC  C317  684   1.016   5.483   3.554 -0.1340 -0.2359 -0.1124
    5DOPC  H17X  685   0.971   5.567   3.497  0.9652 -0.1579 -0.8844
    5DOPC  H17Y  686   1.037   5.395   3.489 -3.2324 -1.9687  1.0156
    5DOPC  C318  687   0.921   5.435   3.668  0.8239 -0.3219  0.2089
    5DOPC  H18X  688   0.923   5.512   3.748  4.1548 -0.4077  0.3582
    5DOPC  H18Y  689   0.818   5.433   3.626  0.6808  0.0961  0.5379
    5DOPC  H18Z  690   0.945   5.332   3.702 -0.9629 -0.9426 -0.2909
    6DOPC     N  691   2.332   7.696   5.719 -0.4055  0.3912  0.4578
    6DOPC   C12  692   2.251   7.665   5.589 -0.1905 -0.0739  0.2931
    6DOPC  H12A  693   2.281   7.578   5.532 -0.3065 -1.2192  1.9281
    6DOPC  H12B  694   2.273   7.749   5.524 -0.0954 -1.1758 -1.1714
    6DOPC   C13  695   2.305   7.599   5.825 -0.3501 -0.2586  0.3745
    6DOPC  H13A  696   2.329   7.499   5.791  1.1292 -0.4608  1.8458
    6DOPC  H13B  697   2.369   7.606   5.912  1.8090 -1.5289 -1.0046
    6DOPC  H13C  698   2.203   7.597   5.862 -0.3031 -1.7474  0.5084
    6DOPC   C14  699   2.289   7.832   5.771  0.1696 -0.7947 -0.3091
    6DOPC  H14A  700   2.277   7.902   5.689 -1.0328 -0.6241 -0.0037
    6DOPC  H14B  701   2.191   7.833   5.816 -0.4301 -0.5897 -1.5578
    6DOPC  H14C  702   2.365   7.874   5.835 -0.5755 -1.0141  0.7355
    6DOPC   C15  703   2.475   7.707   5.699 -0.5325  0.1173 -0.1598
    6DOPC  H15A  704   2.522   7.739   5.791  0.5846 -0.9726 -0.3234
    6DOPC  H15B  705   2.506   7.768   5.616 -0.0487 -2.6363 -2.1315
    6DOPC  H15C  706   2.522   7.611   5.680  1.4094  0.6247  1.6147
    6DOPC   C11  707   2.093   7.666   5.605 -0.4068  0.1805 -0.1469
    6DOPC  H11A  708   2.057   7.757   5.658 -0.5931 -0.3340  0.6266
    6DOPC  H11B  709   2.059   7.674   5.500 -2.8078  1.6274  0.6570
    6DOPC     P  710   2.039   7.413   5.600  0.1500  0.1738  0.0005
    6DOPC   O13  711   1.922   7.332   5.647 -0.7909 -0.2186  0.9334
    6DOPC   O14  712   2.171   7.345   5.620  0.0359 -0.1933  0.0248
    6DOPC   O12  713   2.048   7.550   5.673  0.3402 -0.6264  0.4227
    6DOPC   O11  714   2.029   7.452   5.449 -0.4219  0.4278 -0.4956
    6DOPC    C1  715   1.901   7.498   5.389  0.4947  0.3057 -0.2022
    6DOPC    HA  716   1.916   7.590   5.328 -0.3353  1.9614  1.9305
    6DOPC    HB  717   1.826   7.525   5.467  0.1118  1.7450 -1.0313
    6DOPC    C2  718   1.843   7.397   5.294  0.0180  0.1502  0.5161
    6DOPC    HS  719   1.817   7.305   5.350 -1.4364  0.8523  1.0361
    6DOPC   O21  720   1.937   7.372   5.188 -0.2953 -0.8431 -0.0974
    6DOPC   C21  721   2.009   7.266   5.187  0.3168 -0.1677  0.2644
    6DOPC   O22  722   1.976   7.163   5.250  0.0057  1.0472 -0.8829
    6DOPC   C22  723   2.136   7.290   5.102  0.5117  0.2309 -0.2111
    6DOPC   H2R  724   2.187   7.376   5.151  1.3221  0.1169 -0.8211
    6DOPC   H2S  725   2.111   7.313   4.996  2.1552 -1.7764 -1.1203
    6DOPC    C3  726   1.714   7.450   5.229  0.3540 -0.1352  0.1643
    6DOPC    HX  727   1.733   7.540   5.166  4.2702 -1.9990 -1.6313
    6DOPC    HY  728   1.652   7.469   5.319  1.0731  1.0837  0.4307
    6DOPC   O31  729   1.658   7.353   5.143 -0.0626 -0.1699 -0.0659
    6DOPC   C31  730   1.548   7.388   5.063 -0.2069  0.1828 -0.1083
    6DOPC   O32  731   1.501   7.497   5.074  0.6182  0.1689 -0.2695
    6DOPC   C32  732   1.522   7.277   4.960 -0.0747 -0.6876  0.1800
    6DOPC   H2X  733   1.620   7.234   4.930  0.3519  0.1963  0.2647
    6DOPC   H2Y  734   1.466   7.199   5.015  0.7222 -1.4212 -0.0219
    6DOPC   C23  735   2.235   7.170   5.104  0.2569 -0.0587 -0.5153
    6DOPC   H3R  736   2.172   7.079   5.091 -2.4366  1.2706  1.9882
    6DOPC   H3S  737   2.273   7.168   5.208  0.1522  0.5295 -0.4589
    6DOPC   C24  738   2.353   7.193   5.004  0.1822  0.0262  0.2120
    6DOPC   H4R  739   2.413   7.276   5.048  3.0722 -0.8527 -1.7289
    6DOPC   H4S  740   2.313   7.239   4.911  0.9789  3.0920  1.2687
    6DOPC   C25  741   2.441   7.078   4.968 -0.4430  0.2581 -0.2886
    6DOPC   H5R  742   2.379   6.993   4.931 -0.7059 -0.2249  1.2093
    6DOPC   H5S  743   2.503   7.045   5.054  2.4538 -2.5335 -3.1734
    6DOPC   C26  744   2.533   7.111   4.853 -0.1744  0.2597  0.3071
    6DOPC   H6R  745   2.631   7.152   4.883  0.7812 -1.8939  0.2771
    6DOPC   H6S  746   2.481   7.163   4.769 -0.1120 -0.9861 -0.5240
    6DOPC   C27  747   2.584   6.978   4.784  0.4121 -0.6337 -0.1342
    6DOPC   H7R  748   2.504   6.926   4.727 -0.6563  1.5525 -0.7307
    6DOPC   H7S  749   2.618   6.903   4.859  2.0225  1.0776  0.9370
    6DOPC   C28  750   2.690   7.015   4.680 -0.1604  0.1817 -1.3587
    6DOPC   H8R  751   2.764   7.075   4.738  0.9358 -0.7591 -1.7297
    6DOPC   H8S  752   2.642   7.070   4.598 -0.3203 -0.4649 -1.7055
    6DOPC   C29  753   2.761   6.895   4.628 -0.4940 -0.4269 -0.0993
    6DOPC   H9R  754   2.808   6.824   4.699 -2.3659 -0.7216  0.9264
    6DOPC  C210  755   2.793   6.875   4.500  0.5830  0.0151  0.2977
    6DOPC  H10R  756   2.853   6.786   4.475 -0.8495 -0.7663 -0.4981
    6DOPC  C211  757   2.753   6.953   4.374  0.3573 -0.6198 -0.1506
    6DOPC  H11R  758   2.647   6.983   4.389  0.5093 -0.3011  0.2764
    6DOPC  H11S  759   2.760   6.882   4.289 -0.7048 -0.8296 -0.0784
    6DOPC  C212  760   2.830   7.086   4.333  0.4543  0.3010 -0.3302
    6DOPC  H12R  761   2.937   7.079   4.364  0.4112  1.8516  0.2579
    6DOPC  H12S  762   2.779   7.166   4.390 -0.5566 -0.1375 -0.6077
    6DOPC  C213  763   2.820   7.110   4.182 -0.0974 -1.2455 -0.1628
    6DOPC  H13R  764   2.715   7.100   4.148 -0.8283  0.6964  1.3834
    6DOPC  H13S  765   2.886   7.042   4.124  1.3534 -0.5165  0.5661
    6DOPC  C214  766   2.862   7.254   4.138 -0.5601 -0.1249 -0.3852
    6DOPC  H14R  767   2.973   7.263   4.148 -0.5088  0.6376 -1.4370
    6DOPC  H14S  768   2.812   7.317   4.215 -1.7747 -2.7217  1.0607
    6DOPC  C215  769   2.834   7.287   3.990 -0.1552  0.5914 -0.2850
    6DOPC  H15R  770   2.845   7.397   3.976 -0.4277  0.5942 -0.4959
    6DOPC  H15S  771   2.726   7.268   3.969 -0.9915  0.4381  3.4632
    6DOPC  C216  772   2.932   7.222   3.885 -0.7685 -0.1102  0.0371
    6DOPC  H16R  773   2.912   7.115   3.866  0.0408 -0.3590  0.5243
    6DOPC  H16S  774   3.035   7.221   3.926 -0.5395 -1.2521 -0.5499
    6DOPC  C217  775   2.932   7.292   3.744 -0.7841  0.2775 -0.6606
    6DOPC  H17R  776   3.011   7.253   3.676 -1.6142 -1.5655 -0.6287
    6DOPC  H17S  777   2.960   7.394   3.776  1.6939 -0.5959  0.1924
    6DOPC  C218  778   2.791   7.284   3.678  0.1730 -0.1887  0.9414
    6DOPC  H18R  779   2.789   7.335   3.580 -1.9025 -0.6687  0.6981
    6DOPC  H18S  780   2.714   7.335   3.740  1.4669  1.5271  1.2378
    6DOPC  H18T  781   2.770   7.178   3.653  0.0275  0.5823 -2.7956
    6DOPC   C33  782   1.434   7.335   4.853  0.5124  0.6051  0.0047
    6DOPC   H3X  783   1.339   7.380   4.890  0.4287 -1.1385  2.1712
    6DOPC   H3Y  784   1.393   7.246   4.801 -1.1053  2.0788 -1.3844
    6DOPC   C34  785   1.505   7.429   4.750  0.5006  0.1736  0.1392
    6DOPC   H4X  786   1.456   7.414   4.651  1.4703  1.1905 -0.5214
    6DOPC   H4Y  787   1.608   7.399   4.722  0.0041 -1.4645 -0.0441
    6DOPC   C35  788   1.473   7.575   4.771 -0.4900 -0.9419  0.6111
    6DOPC   H5X  789   1.547   7.629   4.834  0.4616 -1.2448 -0.2096
    6DOPC   H5Y  790   1.380   7.580   4.831 -1.5020 -0.0062 -0.9697
    6DOPC   C36  791   1.447   7.651   4.640  0.6371 -0.2435  0.4741
    6DOPC   H6X  792   1.367   7.600   4.581  1.0939 -0.6172  0.1744
    6DOPC   H6Y  793   1.409   7.754   4.655  1.6253  0.0043  1.4064
    6DOPC   C37  794   1.570   7.661   4.547  0.1701  0.3611 -0.4495
    6DOPC   H7X  795   1.657   7.716   4.591  0.5116 -1.1996  0.9345
    6DOPC   H7Y  796   1.613   7.562   4.521  1.0067  0.1652  1.4811
    6DOPC   C38  797   1.535   7.723   4.416  0.2435  0.6238 -1.0897
    6DOPC   H8X  798   1.445   7.671   4.376 -0.1452 -0.6301  1.2627
    6DOPC   H8Y  799   1.622   7.710   4.348  0.8873  0.8680 -0.3267
    6DOPC   C39  800   1.505   7.872   4.429 -0.9256  0.2205 -0.6734
    6DOPC   H9X  801   1.576   7.921   4.498 -1.2791  2.4198 -1.8164
    6DOPC  C310  802   1.399   7.946   4.389  0.1893  0.4955  0.4407
    6DOPC  H10X  803   1.396   8.056   4.392 -2.1623  0.4721  1.4764
    6DOPC  C311  804   1.303   7.893   4.284 -0.5763  0.0834 -0.1881
    6DOPC  H11X  805   1.204   7.867   4.327 -2.0654  1.3912 -2.6189
    6DOPC  H11Y  806   1.342   7.795   4.247 -0.3506 -1.0883  2.8470
    6DOPC  C312  807   1.284   7.994   4.174  0.3436 -0.4667  0.2724
    6DOPC  H12X  808   1.373   8.002   4.107  0.5666 -0.6983  0.5375
    6DOPC  H12Y  809   1.274   8.093   4.223 -0.8719 -0.2420 -0.4026
    6DOPC  C313  810   1.166   7.965   4.081 -0.1269 -0.0952  0.7175
    6DOPC  H13X  811   1.084   7.948   4.154 -0.6063  0.2843  0.2692
    6DOPC  H13Y  812   1.130   8.058   4.031 -1.5609  1.7085  4.6593
    6DOPC  C314  813   1.174   7.837   3.992 -0.0544  0.4090 -0.5218
    6DOPC  H14X  814   1.256   7.837   3.917  0.8293 -0.0294  0.4195
    6DOPC  H14Y  815   1.191   7.749   4.059 -0.1240 -0.0202 -1.0619
    6DOPC  C315  816   1.044   7.799   3.931  0.8707  0.3814 -0.4333
    6DOPC  H15X  817   1.069   7.719   3.859  0.8270  0.4408 -0.5155
    6DOPC  H15Y  818   1.015   7.888   3.872  0.9671  1.3445  0.9039
    6DOPC  C316  819   0.935   7.751   4.032 -0.5377 -0.1420  0.5584
    6DOPC  H16X  820   0.992   7.677   4.092  1.2406  0.0459 -0.8319
    6DOPC  H16Y  821   0.893   7.830   4.098 -0.1231  0.1375  0.4897
    6DOPC  C317  822   0.817   7.674   3.967  0.4598  0.0119 -0.2697
    6DOPC  H17X  823   0.764   7.745   3.900 -1.0035  0.5505  1.3992
    6DOPC  H17Y  824   0.864   7.583   3.924 -1.3264 -2.3003  2.3750
    6DOPC  C318  825   0.718   7.616   4.066 -0.1461 -0.1824  0.5352
    6DOPC  H18X  826   0.777   7.534   4.113 -1.2931 -0.1863  2.0546
    6DOPC  H18Y  827   0.688   7.692   4.142 -0.0788  0.1175  0.2608
    6DOPC  H18Z  828   0.630   7.559   4.028  0.3479  0.1126 -1.1198
    7DOPC     N  829   8.445   7.931   5.355  0.5258 -0.1254  0.2543
    7DOPC   C12  830   0.021   7.824   5.349 -0.0752 -0.4311 -0.9615
    7DOPC  H12A  831   0.016   7.758   5.434 -1.3649 -1.4865 -1.8157
    7DOPC  H12B  832   0.121   7.866   5.351  0.0799 -0.8222  0.7144
    7DOPC   C13  833   8.470   8.025   5.474 -0.1663 -0.3788  0.0506
    7DOPC  H13A  834   8.385   8.092   5.482 -0.4889 -0.6292 -1.0499
    7DOPC  H13B  835   8.470   7.974   5.569 -0.0507 -1.2859 -0.4354
    7DOPC  H13C  836   0.023   8.087   5.467 -0.6866  0.3482 -0.2906
    7DOPC   C14  837   8.309   7.870   5.368  0.2653 -0.2532 -0.1878
    7DOPC  H14A  838   8.302   7.789   5.439 -0.9094  0.2351  0.2712
    7DOPC  H14B  839   8.236   7.942   5.402  0.8258  0.7857 -1.1283
    7DOPC  H14C  840   8.264   7.837   5.275 -0.4231  0.6262 -0.1779
    7DOPC   C15  841   8.450   8.015   5.242  0.4654 -0.3704  0.7298
    7DOPC  H15A  842   0.017   8.027   5.209  0.5800 -3.1014 -0.1783
    7DOPC  H15B  843   8.397   8.105   5.268 -0.1304 -0.4234 -0.2230
    7DOPC  H15C  844   8.404   7.965   5.158  0.7427  0.3736  0.1173
    7DOPC   C11  845   0.018   7.742   5.225  0.1017  0.0182  0.6873
    7DOPC  H11A  846   8.457   7.703   5.186  0.3734  0.5788 -0.5902
    7DOPC  H11B  847   0.053   7.808   5.143  1.7290  1.2611  2.2868
    7DOPC     P  848   0.066   7.518   5.341  0.4520 -0.4179  0.2338
    7DOPC   O13  849   8.479   7.447   5.289  0.3806 -0.1295 -0.1640
    7DOPC   O14  850   0.057   7.558   5.480  0.4038 -0.4792 -0.2917
    7DOPC   O12  851   0.116   7.635   5.248 -0.0651  0.1366  1.0547
    7DOPC   O11  852   0.188   7.420   5.337 -0.6090  0.0729  0.1764
    7DOPC    C1  853   0.194   7.315   5.240 -0.1006 -0.2666  0.4023
    7DOPC    HA  854   0.096   7.262   5.240 -1.3072  1.8595 -0.2904
    7DOPC    HB  855   0.265   7.238   5.280  1.3470  0.7618 -0.1148
    7DOPC    C2  856   0.264   7.363   5.110 -0.3187  0.0544  0.0717
    7DOPC    HS  857   0.363   7.411   5.126 -0.6094  0.9047 -0.5770
    7DOPC   O21  858   0.171   7.451   5.043 -0.4327  0.6324  0.6105
    7DOPC   C21  859   0.227   7.535   4.959 -0.0941  0.0684  0.4326
    7DOPC   O22  860   0.345   7.550   4.936 -0.2547 -0.2818 -0.3183
    7DOPC   C22  861   0.119   7.597   4.879  0.2411  0.6557 -0.2228
    7DOPC   H2R  862   0.034   7.622   4.946 -0.5808 -1.5079 -0.3668
    7DOPC   H2S  863   0.074   7.519   4.814 -1.0119  0.8882  0.3412
    7DOPC    C3  864   0.290   7.243   5.017 -0.1364  0.5535  0.2980
    7DOPC    HX  865   0.360   7.176   5.071  1.1406 -0.2565 -2.1817
    7DOPC    HY  866   0.353   7.276   4.932 -0.2542  1.7801  0.6674
    7DOPC   O31  867   0.177   7.157   4.992  0.4022  0.2180 -0.5258
    7DOPC   C31  868   0.119   7.169   4.869 -0.4352 -0.7944 -0.1595
    7DOPC   O32  869   0.172   7.220   4.768  0.1930 -0.5254  0.2096
    7DOPC   C32  870   8.511   7.103   4.858 -0.1653 -0.4231  0.4172
    7DOPC   H2X  871   8.464   7.121   4.957 -0.9007  2.0407 -0.3026
    7DOPC   H2Y  872   8.461   7.152   4.771 -0.6049 -1.1455  0.2574
    7DOPC   C23  873   0.162   7.707   4.776  0.5434  0.0505  0.3565
    7DOPC   H3R  874   0.197   7.662   4.681  0.0525  2.3006 -0.9696
    7DOPC   H3S  875   0.225   7.784   4.826  2.2772 -1.1328  0.0772
    7DOPC   C24  876   0.023   7.760   4.732 -0.6587 -0.2340 -0.1141
    7DOPC   H4R  877   0.046   7.853   4.676  0.3714 -0.9013 -0.8489
    7DOPC   H4S  878   8.495   7.790   4.818 -1.3059 -1.3524 -0.1691
    7DOPC   C25  879   8.475   7.674   4.629  0.1090  0.3175 -0.4084
    7DOPC   H5R  880   8.380   7.730   4.616 -0.7099  0.4781  4.3587
    7DOPC   H5S  881   8.450   7.589   4.696  0.7245  2.2434  2.4803
    7DOPC   C26  882   0.014   7.630   4.505  0.5172  0.6104  0.2668
    7DOPC   H6R  883   8.486   7.578   4.430  0.1051  1.5091 -0.0174
    7DOPC   H6S  884   0.093   7.555   4.529  0.8707  1.5061  2.0547
    7DOPC   C27  885   0.079   7.749   4.430  0.2005 -0.2346 -0.1010
    7DOPC   H7R  886   0.171   7.785   4.481 -0.5777  0.9055  0.5229
    7DOPC   H7S  887   0.009   7.834   4.447  0.7912  0.0855  0.7469
    7DOPC   C28  888   0.110   7.731   4.279  1.3334 -0.1648 -0.1825
    7DOPC   H8R  889   0.017   7.700   4.228  1.1946  1.3479 -0.9006
    7DOPC   H8S  890   0.185   7.650   4.265  2.5175  0.3620  2.4522
    7DOPC   C29  891   0.142   7.866   4.224 -0.1295 -0.7675 -0.3327
    7DOPC   H9R  892   0.065   7.944   4.237  2.2505  2.0108 -1.9338
    7DOPC  C210  893   0.242   7.902   4.142  0.3678 -0.2516  0.2482
    7DOPC  H10R  894   0.245   8.007   4.110  0.3686 -0.0815  0.7881
    7DOPC  C211  895   0.354   7.815   4.079  0.2608 -0.7711 -0.0745
    7DOPC  H11R  896   0.348   7.717   4.130 -1.9409 -0.8663 -0.4106
    7DOPC  H11S  897   0.458   7.851   4.091  1.5692 -3.4454 -2.1315
    7DOPC  C212  898   0.333   7.803   3.931 -0.2095  0.0478 -0.0606
    7DOPC  H12R  899   0.226   7.792   3.903  0.3099 -0.4030 -2.0633
    7DOPC  H12S  900   0.387   7.708   3.908  1.1013  0.8555 -0.4334
    7DOPC  C213  901   0.372   7.922   3.845  0.0871  0.4889  0.8886
    7DOPC  H13R  902   0.352   8.013   3.906  1.3331  0.7970  0.8619
    7DOPC  H13S  903   0.313   7.935   3.751  1.2259  0.0714  0.0892
    7DOPC  C214  904   0.511   7.920   3.798  0.0783  0.2084 -0.1732
    7DOPC  H14R  905   0.547   7.833   3.740  2.4973 -0.9854  2.8864
    7DOPC  H14S  906   0.580   7.926   3.884 -0.8578  0.3811  0.5831
    7DOPC  C215  907   0.552   8.046   3.709  0.6454  1.0843 -0.3743
    7DOPC  H15R  908   0.535   8.136   3.771 -0.7222  0.4728  0.1860
    7DOPC  H15S  909   0.496   8.043   3.612  3.0591  0.9136 -1.8381
    7DOPC  C216  910   0.699   8.047   3.668 -0.0257  0.2383  0.2456
    7DOPC  H16R  911   0.716   7.949   3.618 -2.8819 -0.6644  0.8128
    7DOPC  H16S  912   0.766   8.035   3.755 -0.6414 -4.2335  0.3460
    7DOPC  C217  913   0.727   8.157   3.565 -0.4521  0.3822  0.3543
    7DOPC  H17R  914   0.744   8.252   3.620 -2.5578  1.3281 -0.5318
    7DOPC  H17S  915   0.634   8.176   3.507 -0.2098  1.5266  0.2997
    7DOPC  C218  916   0.849   8.125   3.477 -0.4533  0.0982 -0.4047
    7DOPC  H18R  917   0.815   8.095   3.375 -1.6933 -1.7177  0.4781
    7DOPC  H18S  918   0.925   8.051   3.510 -0.1716  0.0007 -1.2316
    7DOPC  H18T  919   0.903   8.222   3.477 -0.5187  0.2450  2.7578
    7DOPC   C33  920   8.506   6.947   4.845  0.5366  0.0075 -0.4021
    7DOPC   H3X  921   8.405   6.916   4.878  0.9183 -0.6189  0.2167
    7DOPC   H3Y  922   0.049   6.898   4.906  0.9537  0.3436 -0.6604
    7DOPC   C34  923   8.531   6.905   4.697 -0.1817 -0.2779 -0.5432
    7DOPC   H4X  924   0.103   6.922   4.670  0.1956  0.1448  1.1340
    7DOPC   H4Y  925   8.461   6.962   4.633  2.0859  0.4117 -2.5796
    7DOPC   C35  926   8.503   6.753   4.676 -0.6731 -0.0200 -0.0322
    7DOPC   H5X  927   8.402   6.719   4.706 -0.4606  0.2372  1.0320
    7DOPC   H5Y  928   0.050   6.709   4.737  2.0580  3.2442 -1.0434
    7DOPC   C36  929   8.534   6.707   4.533 -0.5311  0.3312  0.0641
    7DOPC   H6X  930   0.094   6.755   4.501 -0.1136  0.0090  0.8052
    7DOPC   H6Y  931   0.010   6.597   4.534 -1.1364  0.1941 -2.2923
    7DOPC   C37  932   8.422   6.744   4.432 -0.8145  0.0370  0.1619
    7DOPC   H7X  933   8.350   6.659   4.428 -0.0654 -0.6689  1.0161
    7DOPC   H7Y  934   8.372   6.836   4.467  0.6717  1.4465 -1.2438
    7DOPC   C38  935   8.478   6.786   4.291  0.4062 -0.0361  0.1591
    7DOPC   H8X  936   8.526   6.883   4.315 -1.7197  1.2441 -0.5748
    7DOPC   H8Y  937   8.386   6.799   4.231  0.9310 -1.1567 -0.9377
    7DOPC   C39  938   0.035   6.680   4.238 -0.3621  0.6124 -0.0819
    7DOPC   H9X  939   0.014   6.574   4.260  0.5609  0.3190 -0.5898
    7DOPC  C310  940   0.152   6.715   4.172 -0.1147 -0.2452 -0.3479
    7DOPC  H10X  941   0.222   6.634   4.145  2.7206  1.8104  0.3958
    7DOPC  C311  942   0.209   6.854   4.137 -0.4886 -0.8944  0.1393
    7DOPC  H11X  943   0.317   6.855   4.111 -0.5483  0.1044 -0.1026
    7DOPC  H11Y  944   0.194   6.917   4.228 -2.7663 -0.7743 -0.2678
    7DOPC  C312  945   0.138   6.925   4.021 -0.4831 -0.2310  0.1879
    7DOPC  H12X  946   0.166   7.033   4.017  0.1783 -0.4272 -1.3966
    7DOPC  H12Y  947   0.028   6.926   4.034 -0.4341  1.0361  0.6676
    7DOPC  C313  948   0.177   6.867   3.886 -0.1746 -0.2396  0.7356
    7DOPC  H13X  949   0.277   6.912   3.869  0.5345 -1.6975  0.8909
    7DOPC  H13Y  950   0.190   6.757   3.894  2.0435 -0.0069  0.8707
    7DOPC  C314  951   0.084   6.895   3.769  0.0807 -0.2727  0.9079
    7DOPC  H14X  952   0.064   7.004   3.774  0.4863 -0.0321 -1.4003
    7DOPC  H14Y  953   0.134   6.875   3.672 -2.6167  1.0517 -0.8761
    7DOPC  C315  954   8.476   6.837   3.769 -0.1397 -0.7662 -0.3154
    7DOPC  H15X  955   8.429   6.841   3.870  2.0207 -1.1289  0.7455
    7DOPC  H15Y  956   8.503   6.733   3.740  2.0985 -0.4586  0.4637
    7DOPC  C316  957   8.380   6.892   3.667  0.0841  0.2595 -0.8058
    7DOPC  H16X  958   8.455   6.931   3.595  0.9896 -1.5731 -0.9174
    7DOPC  H16Y  959   8.318   6.818   3.611 -0.6156  1.9335 -2.3440
    7DOPC  C317  960   8.291   7.001   3.712 -0.2097  0.7864  0.0179
    7DOPC  H17X  961   8.216   6.953   3.779  0.1847 -1.2821 -0.9551
    7DOPC  H17Y  962   8.338   7.080   3.775 -1.3175  0.2648  1.5791
    7DOPC  C318  963   8.219   7.080   3.601 -0.1158 -0.4380  0.1387
    7DOPC  H18X  964   8.299   7.114   3.532  0.5206 -1.1584  0.5069
    7DOPC  H18Y  965   8.148   7.013   3.548 -2.4985  0.7613  1.6414
    7DOPC  H18Z  966   8.153   7.161   3.638 -0.3559  0.6256 -2.3917
    8DOPC     N  967   2.819   8.169   6.393 -0.2087  0.4035 -0.4576
    8DOPC   C12  968   2.903   8.167   6.269 -0.5073 -0.2037  0.1940
    8DOPC  H12A  969   2.863   8.084   6.212  0.9612 -0.3846 -0.6469
    8DOPC  H12B  970   3.002   8.141   6.304 -1.3803 -1.8158  1.6337
    8DOPC   C13  971   2.673   8.203   6.377  0.7705  0.3474  0.0050
    8DOPC  H13A  972   2.631   8.221   6.474  1.0859  1.0334  0.0207
    8DOPC  H13B  973   2.654   8.285   6.309  1.6398  0.0480 -0.6322
    8DOPC  H13C  974   2.627   8.116   6.332  1.3928 -0.3783  0.7349
    8DOPC   C14  975   2.879   8.271   6.482 -0.3886 -0.3573  0.4571
    8DOPC  H14A  976   2.864   8.371   6.444 -1.3728  0.1167  2.0178
    8DOPC  H14B  977   2.847   8.270   6.585  1.7694  1.9720  1.2764
    8DOPC  H14C  978   2.984   8.248   6.495 -0.0599  0.3825 -0.6665
    8DOPC   C15  979   2.822   8.037   6.462  0.7440 -0.5630  0.0299
    8DOPC  H15A  980   2.776   8.038   6.559 -3.4364 -1.0263 -1.7120
    8DOPC  H15B  981   2.921   7.994   6.464  0.3992 -1.4809 -1.1424
    8DOPC  H15C  982   2.768   7.964   6.403 -0.5303  1.5094 -1.5539
    8DOPC   C11  983   2.905   8.279   6.166 -0.1066 -0.0935 -0.6230
    8DOPC  H11A  984   2.932   8.376   6.213 -0.8563  0.1031 -0.5773
    8DOPC  H11B  985   2.976   8.267   6.082  1.7432  1.3923  0.6455
    8DOPC     P  986   2.692   8.250   6.007  0.1505  0.2889 -0.1116
    8DOPC   O13  987   2.572   8.333   5.995  0.0340  0.1874  0.4620
    8DOPC   O14  988   2.669   8.107   6.035  0.2571  0.2719 -0.1171
    8DOPC   O12  989   2.774   8.308   6.121 -0.2454  0.2850 -0.6264
    8DOPC   O11  990   2.782   8.263   5.878  0.0826  0.2268 -0.3711
    8DOPC    C1  991   2.830   8.390   5.838 -0.5893 -0.3649 -0.1650
    8DOPC    HA  992   2.874   8.439   5.927  0.9044 -2.2084  0.1921
    8DOPC    HB  993   2.743   8.445   5.796  0.3245 -0.0047 -1.6577
    8DOPC    C2  994   2.945   8.387   5.736  0.5659 -0.8119  0.7247
    8DOPC    HS  995   2.972   8.494   5.724 -0.9309 -0.5827 -1.1078
    8DOPC   O21  996   2.920   8.332   5.604  0.1362  0.1408  0.3022
    8DOPC   C21  997   2.832   8.380   5.537  0.6835  1.2128  0.3121
    8DOPC   O22  998   2.750   8.467   5.569  0.0275  0.4594  0.2687
    8DOPC   C22  999   2.869   8.322   5.394  0.1634  0.1071 -0.6398
    8DOPC   H2R 1000   2.780   8.269   5.353  0.2926  0.2080 -1.0533
    8DOPC   H2S 1001   2.936   8.234   5.405 -2.8191 -2.1968  0.3680
    8DOPC    C3 1002   3.063   8.306   5.800  0.4808 -0.1157 -0.6937
    8DOPC    HX 1003   3.032   8.200   5.808 -0.5421  0.2828  0.8726
    8DOPC    HY 1004   3.075   8.350   5.901 -3.0700  1.2978 -0.7441
    8DOPC   O31 1005   3.180   8.325   5.716  0.9596  0.0582 -0.1927
    8DOPC   C31 1006   3.235   8.215   5.677  0.8670 -0.3024  0.5182
    8DOPC   O32 1007   3.231   8.102   5.727 -0.2706  0.1451  0.3368
    8DOPC   C32 1008   3.323   8.245   5.559 -0.1923 -0.5462 -0.0934
    8DOPC   H2X 1009   3.315   8.355   5.542  0.3627 -0.5617 -0.4781
    8DOPC   H2Y 1010   3.431   8.237   5.583  0.3385  2.5811 -1.0204
    8DOPC   C23 1011   2.931   8.420   5.294 -0.5984 -0.0126  0.0025
    8DOPC   H3R 1012   2.943   8.361   5.201 -2.4743 -1.9126  0.8858
    8DOPC   H3S 1013   3.027   8.468   5.324  0.5507 -2.6774  0.8333
    8DOPC   C24 1014   2.839   0.005   5.266 -0.3164 -0.9074  0.8772
    8DOPC   H4R 1015   2.850   0.074   5.353 -0.5358 -0.0122  0.2181
    8DOPC   H4S 1016   2.737   8.503   5.243 -0.3396  0.6162 -2.0424
    8DOPC   C25 1017   2.886   0.076   5.134 -0.2115  0.3308  0.2767
    8DOPC   H5R 1018   2.994   0.101   5.132 -0.0815  0.4044 -4.7728
    8DOPC   H5S 1019   2.824   0.167   5.122 -1.4769 -0.5620 -0.2200
    8DOPC   C26 1020   2.863   8.517   5.010  0.1347 -0.7144 -0.3220
    8DOPC   H6R 1021   2.760   8.476   5.026  0.1406 -0.3333  0.7770
    8DOPC   H6S 1022   2.933   8.430   5.010  1.9509  0.6299 -2.5831
    8DOPC   C27 1023   2.883   0.049   4.876 -0.0654 -0.4229 -0.0381
    8DOPC   H7R 1024   2.926   8.513   4.801  0.2475 -0.5035  0.2153
    8DOPC   H7S 1025   2.950   0.137   4.882  0.2129 -0.6527  0.2413
    8DOPC   C28 1026   2.753   0.097   4.815  1.5360 -0.0200  0.2865
    8DOPC   H8R 1027   2.722   0.191   4.864  0.6184 -0.5745  0.7990
    8DOPC   H8S 1028   2.672   0.024   4.836  1.2084  0.2827  0.0852
    8DOPC   C29 1029   2.783   0.129   4.674 -0.3114  0.2580  1.1077
    8DOPC   H9R 1030   2.834   0.226   4.666  0.9947 -0.5885 -3.0820
    8DOPC  C210 1031   2.765   0.053   4.562  0.2208  0.5010  0.2468
    8DOPC  H10R 1032   2.806   0.088   4.466  1.2413 -0.1420  0.4303
    8DOPC  C211 1033   2.681   8.464   4.555 -0.1636 -0.3693  0.4748
    8DOPC  H11R 1034   2.582   8.494   4.597 -0.7459 -1.5085 -0.0131
    8DOPC  H11S 1035   2.729   8.387   4.619  0.0167  0.0820  0.8889
    8DOPC  C212 1036   2.647   8.418   4.413  0.3410 -0.6450 -0.1281
    8DOPC  H12R 1037   2.607   8.504   4.355 -0.1592 -0.4500  0.4826
    8DOPC  H12S 1038   2.579   8.330   4.406  1.9396 -1.8037 -2.1043
    8DOPC  C213 1039   2.778   8.362   4.361 -0.1654  0.2193 -0.1219
    8DOPC  H13R 1040   2.800   8.278   4.431  1.9345  2.3813  2.0005
    8DOPC  H13S 1041   2.864   8.433   4.364 -0.6443  0.7824  1.0929
    8DOPC  C214 1042   2.760   8.317   4.216 -0.5887 -0.7881  1.0099
    8DOPC  H14R 1043   2.728   8.412   4.168 -2.2658 -1.9506 -0.2939
    8DOPC  H14S 1044   2.680   8.240   4.219 -0.1249 -1.2671  1.2461
    8DOPC  C215 1045   2.890   8.267   4.147 -0.6966 -0.4067  0.2155
    8DOPC  H15R 1046   2.918   8.164   4.179  0.5504 -0.0023  0.4864
    8DOPC  H15S 1047   2.975   8.332   4.175  0.2499 -1.4459 -0.1656
    8DOPC  C216 1048   2.880   8.265   3.987  0.2858 -0.4679  0.9939
    8DOPC  H16R 1049   2.973   8.239   3.932  0.1435 -0.7011  0.8620
    8DOPC  H16S 1050   2.844   8.370   3.974 -0.9984 -0.7651  1.9608
    8DOPC  C217 1051   2.773   8.173   3.917 -0.0691  0.0319 -0.1430
    8DOPC  H17R 1052   2.691   8.160   3.991  0.9770 -2.1915  0.7271
    8DOPC  H17S 1053   2.826   8.076   3.901  3.2350  1.8063 -0.8838
    8DOPC  C218 1054   2.701   8.222   3.791  0.2119  0.3269  0.0464
    8DOPC  H18R 1055   2.642   8.313   3.817 -0.2354 -0.2143  0.9568
    8DOPC  H18S 1056   2.634   8.142   3.753  0.8843 -0.1825 -0.0884
    8DOPC  H18T 1057   2.763   8.249   3.702 -1.5621  0.2847 -1.2504
    8DOPC   C33 1058   3.297   8.184   5.422 -0.7895 -0.6059 -0.0545
    8DOPC   H3X 1059   3.195   8.141   5.414 -0.1274 -1.8733 -3.1791
    8DOPC   H3Y 1060   3.355   8.091   5.403 -2.5215 -1.7559  0.1139
    8DOPC   C34 1061   3.320   8.289   5.311  0.0740 -0.1108  0.7509
    8DOPC   H4X 1062   3.418   8.341   5.311 -0.0118  0.1110 -0.9331
    8DOPC   H4Y 1063   3.242   8.366   5.328 -0.2699 -0.2666 -0.0557
    8DOPC   C35 1064   3.325   8.231   5.166 -0.2241 -0.6114 -0.6631
    8DOPC   H5X 1065   3.234   8.171   5.145 -1.9457  1.8605 -0.7090
    8DOPC   H5Y 1066   3.412   8.161   5.163  1.2022  1.0754 -3.5516
    8DOPC   C36 1067   3.341   8.338   5.060 -0.3195 -0.5084 -0.0485
    8DOPC   H6X 1068   3.251   8.402   5.062  0.2098  0.2629  2.3727
    8DOPC   H6Y 1069   3.430   8.403   5.076 -1.5030  0.8761  1.1373
    8DOPC   C37 1070   3.344   8.272   4.917  0.3834 -0.1916  0.0407
    8DOPC   H7X 1071   3.450   8.255   4.890  0.2552 -0.3871 -0.3452
    8DOPC   H7Y 1072   3.294   8.173   4.926 -2.2994  1.1792  1.5136
    8DOPC   C38 1073   3.269   8.355   4.805 -0.6339  0.6746 -0.1815
    8DOPC   H8X 1074   3.162   8.371   4.829 -1.0479 -0.9537 -0.7438
    8DOPC   H8Y 1075   3.266   8.295   4.711 -2.0176  0.5361 -0.0785
    8DOPC   C39 1076   3.335   8.484   4.784  0.3247 -0.4080  0.6808
    8DOPC   H9X 1077   3.290   0.033   4.839  0.8458  0.3098  0.0357
    8DOPC  C310 1078   3.423   8.527   4.688  0.6311  0.1769 -0.7173
    8DOPC  H10X 1079   3.455   0.096   4.703 -0.7346  0.5432 -0.2402
    8DOPC  C311 1080   3.488   8.440   4.583 -0.3944 -0.0147  0.2850
    8DOPC  H11X 1081   3.448   8.336   4.586 -2.4938  0.6826 -1.2034
    8DOPC  H11Y 1082   3.598   8.446   4.600 -0.3578 -1.1418  0.5098
    8DOPC  C312 1083   3.483   8.492   4.434  0.1636  1.0405  0.1536
    8DOPC  H12X 1084   3.377   8.507   4.407 -0.1834  0.5051  1.1788
    8DOPC  H12Y 1085   3.512   8.404   4.372 -2.8800  0.5758 -0.7904
    8DOPC  C313 1086   3.559   0.083   4.404 -0.2832  0.3763  0.2182
    8DOPC  H13X 1087   3.505   0.159   4.465  2.0763 -1.5110  5.1809
    8DOPC  H13Y 1088   3.660   0.070   4.449 -0.3541  0.1411  0.3078
    8DOPC  C314 1089   3.562   0.113   4.255  0.2249  0.0329 -0.3693
    8DOPC  H14X 1090   3.632   0.199   4.246 -0.3265  0.5284 -0.0091
    8DOPC  H14Y 1091   3.594   0.027   4.192 -0.4824 -1.1740  0.8777
    8DOPC  C315 1092   3.414   0.142   4.207 -0.7967 -0.0167 -0.3091
    8DOPC  H15X 1093   3.370   0.219   4.274  1.2134  0.5796  0.3995
    8DOPC  H15Y 1094   3.354   0.049   4.209  1.0642 -1.3392 -1.9345
    8DOPC  C316 1095   3.412   0.211   4.066 -1.1915  0.3117 -0.1062
    8DOPC  H16X 1096   3.481   0.298   4.058  0.7734 -1.3102 -1.8352
    8DOPC  H16Y 1097   3.456   0.141   3.992 -2.2893  0.4769 -0.9514
    8DOPC  C317 1098   3.268   0.229   4.018  0.4627 -0.1670  0.2516
    8DOPC  H17X 1099   3.212   0.144   4.061  0.7598 -0.9910 -0.9570
    8DOPC  H17Y 1100   3.231   0.320   4.070  0.7478 -0.3913  0.8589
    8DOPC  C318 1101   3.251   0.256   3.873 -0.1754  0.6286  0.1311
    8DOPC  H18X 1102   3.332   0.323   3.839 -1.7100  1.5913 -1.8665
    8DOPC  H18Y 1103   3.267   0.160   3.819 -0.4707  1.8364 -2.2074
    8DOPC  H18Z 1104   3.149   0.285   3.839  0.4925  0.1207 -2.5007
    9DOPC     N 1105   1.906   2.801   5.475  0.3994 -0.2111  0.4436
    9DOPC   C12 1106   1.959   2.840   5.337 -0.5146  0.2189  0.0843
    9DOPC  H12A 1107   2.058   2.797   5.332  0.0868  1.7097 -2.0583
    9DOPC  H12B 1108   1.970   2.947   5.331 -1.1362  0.3104  0.4501
    9DOPC   C13 1109   1.994   2.861   5.581  0.4681 -0.8733 -0.7798
    9DOPC  H13A 1110   1.996   2.968   5.568 -1.3688 -0.2929  2.5956
    9DOPC  H13B 1111   1.960   2.853   5.683 -0.1840  0.3098 -0.8900
    9DOPC  H13C 1112   2.089   2.809   5.583 -0.0219 -1.8003  1.3555
    9DOPC   C14 1113   1.908   2.652   5.491 -0.1689 -1.0071  0.9679
    9DOPC  H14A 1114   1.883   2.631   5.594  0.8886  0.3669  1.5375
    9DOPC  H14B 1115   1.841   2.615   5.415  0.2685  3.3541 -1.8829
    9DOPC  H14C 1116   2.004   2.607   5.472  0.3190  0.3033  0.1746
    9DOPC   C15 1117   1.761   2.846   5.493 -0.7719  0.3091  0.7372
    9DOPC  H15A 1118   1.702   2.795   5.419 -1.6181 -0.0559  1.6376
    9DOPC  H15B 1119   1.744   2.951   5.472 -2.8629 -0.6616 -3.4010
    9DOPC  H15C 1120   1.729   2.803   5.587  0.1989  0.7424  1.2871
    9DOPC   C11 1121   1.888   2.786   5.209  0.3467 -0.0712  0.0418
    9DOPC  H11A 1122   1.779   2.801   5.218  0.3156 -0.5845  0.5716
    9DOPC  H11B 1123   1.934   2.830   5.118  3.1722 -0.3253  1.2205
    9DOPC     P 1124   2.041   2.587   5.140 -0.1581 -0.6329 -0.2162
    9DOPC   O13 1125   2.054   2.441   5.152 -0.1389  0.3890  0.1719
    9DOPC   O14 1126   2.156   2.670   5.186  0.0604 -0.5858 -0.7311
    9DOPC   O12 1127   1.903   2.645   5.197  0.1908  0.2340  0.7023
    9DOPC   O11 1128   2.018   2.613   4.982 -0.3377 -0.0887  0.6338
    9DOPC    C1 1129   1.919   2.538   4.913  0.5739 -0.3102  0.1585
    9DOPC    HA 1130   1.824   2.595   4.915  0.4706 -0.1727 -3.1635
    9DOPC    HB 1131   1.897   2.442   4.965 -0.5275 -0.5005 -0.6325
    9DOPC    C2 1132   1.961   2.509   4.768  0.1814 -0.4623 -0.1698
    9DOPC    HS 1133   2.067   2.473   4.769  0.3144 -0.1560 -1.6107
    9DOPC   O21 1134   1.956   2.635   4.710  0.2712 -0.2760 -0.2794
    9DOPC   C21 1135   2.049   2.663   4.626 -0.6123  0.3376  0.3643
    9DOPC   O22 1136   2.137   2.588   4.592  0.0554 -0.0409  0.3884
    9DOPC   C22 1137   2.031   2.804   4.571  0.1686  0.0753  0.4538
    9DOPC   H2R 1138   2.084   2.860   4.651  2.2235  1.3815 -1.6639
    9DOPC   H2S 1139   1.924   2.833   4.565  0.1476  0.0115  0.5255
    9DOPC    C3 1140   1.859   2.418   4.697  0.1954 -0.0120 -0.2332
    9DOPC    HX 1141   1.759   2.465   4.699  1.6934  3.4712  1.5638
    9DOPC    HY 1142   1.837   2.321   4.746 -0.4930  1.0654  1.6660
    9DOPC   O31 1143   1.893   2.399   4.556 -0.5754  0.0056  0.4834
    9DOPC   C31 1144   1.998   2.312   4.536  0.4749  0.0309 -0.3103
    9DOPC   O32 1145   2.030   2.227   4.618 -0.7501 -0.5037 -0.4910
    9DOPC   C32 1146   2.048   2.315   4.391 -0.7163  0.5585 -1.1726
    9DOPC   H2X 1147   1.959   2.336   4.329 -2.0629 -0.7901  0.2111
    9DOPC   H2Y 1148   2.136   2.383   4.383  0.3210 -0.7456 -1.2911
    9DOPC   C23 1149   2.121   2.832   4.449  0.1829  0.9691  0.8368
    9DOPC   H3R 1150   2.218   2.780   4.467 -0.6213 -1.9456 -2.3243
    9DOPC   H3S 1151   2.133   2.942   4.442 -0.7544  1.0512  0.4312
    9DOPC   C24 1152   2.069   2.775   4.310 -0.1684  0.3092  0.5203
    9DOPC   H4R 1153   1.977   2.832   4.284  0.9636  2.1063  0.2557
    9DOPC   H4S 1154   2.034   2.671   4.325 -1.2528  0.3130 -1.5743
    9DOPC   C25 1155   2.178   2.790   4.201 -0.4200 -0.4159 -0.0004
    9DOPC   H5R 1156   2.272   2.755   4.248  0.5984  2.1148  0.0416
    9DOPC   H5S 1157   2.196   2.899   4.184 -1.0293 -0.2248  0.5304
    9DOPC   C26 1158   2.138   2.713   4.075  0.7228  0.1789 -0.0729
    9DOPC   H6R 1159   2.031   2.736   4.057  0.1265 -1.2745  1.3213
    9DOPC   H6S 1160   2.146   2.605   4.100  1.7573  0.2151 -0.2118
    9DOPC   C27 1161   2.216   2.749   3.955 -0.1464  0.1192  0.3211
    9DOPC   H7R 1162   2.319   2.707   3.965 -0.7236 -1.5321 -0.4167
    9DOPC   H7S 1163   2.216   2.855   3.923  1.1674 -0.2900 -1.2080
    9DOPC   C28 1164   2.144   2.688   3.826 -0.4740 -0.6762  0.0099
    9DOPC   H8R 1165   2.040   2.726   3.821 -0.9412 -1.3224  2.8144
    9DOPC   H8S 1166   2.119   2.583   3.855  1.5902 -1.0465  0.6268
    9DOPC   C29 1167   2.239   2.682   3.716  0.0471  0.4778 -0.0418
    9DOPC   H9R 1168   2.345   2.659   3.730 -0.1896 -1.0646 -0.6057
    9DOPC  C210 1169   2.209   2.710   3.583 -0.0870 -0.3978  0.4685
    9DOPC  H10R 1170   2.281   2.680   3.506 -1.4588 -1.0542 -0.5982
    9DOPC  C211 1171   2.078   2.755   3.528  0.4689 -0.5445  0.2895
    9DOPC  H11R 1172   1.987   2.767   3.591  0.4870  1.3181  0.0268
    9DOPC  H11S 1173   2.031   2.678   3.462 -1.0826  1.8213 -1.5775
    9DOPC  C212 1174   2.088   2.879   3.435  0.1300  0.5400  0.2797
    9DOPC  H12R 1175   2.011   2.856   3.358 -0.9485  2.5561  0.6987
    9DOPC  H12S 1176   2.193   2.878   3.400  0.3786 -0.8812  0.9875
    9DOPC  C213 1177   2.047   3.002   3.507  0.6616 -0.2558  0.2178
    9DOPC  H13R 1178   1.941   3.000   3.538  0.8152 -3.1225  0.8540
    9DOPC  H13S 1179   2.052   3.085   3.434 -0.4741  0.3146  0.7689
    9DOPC  C214 1180   2.123   3.030   3.632 -0.2308 -0.7746  0.0978
    9DOPC  H14R 1181   2.233   3.021   3.620 -0.2927 -2.5618  0.5482
    9DOPC  H14S 1182   2.094   2.952   3.705 -1.0695 -0.9548 -0.4126
    9DOPC  C215 1183   2.085   3.168   3.687 -0.3864  0.7602 -1.2288
    9DOPC  H15R 1184   2.119   3.172   3.792  0.7128 -1.3684 -1.4678
    9DOPC  H15S 1185   1.974   3.174   3.695 -0.4436 -1.0813 -0.1658
    9DOPC  C216 1186   2.138   3.290   3.612  0.7258 -0.1704 -0.3722
    9DOPC  H16R 1187   2.081   3.288   3.518 -0.3550  2.3654  0.1405
    9DOPC  H16S 1188   2.247   3.273   3.599  0.7985 -1.5806  1.6009
    9DOPC  C217 1189   2.115   3.424   3.682  0.3130  0.3598  0.3875
    9DOPC  H17R 1190   2.006   3.442   3.684  0.3638  0.8624 -0.7864
    9DOPC  H17S 1191   2.151   3.500   3.609 -0.5216  0.5413  0.1577
    9DOPC  C218 1192   2.162   3.446   3.826  0.1338 -0.4503 -0.0419
    9DOPC  H18R 1193   2.272   3.460   3.833  0.0142 -0.2958  2.1211
    9DOPC  H18S 1194   2.130   3.357   3.885 -2.8400 -0.0153 -0.8156
    9DOPC  H18T 1195   2.106   3.532   3.867 -0.2282  0.2494 -1.9000
    9DOPC   C33 1196   2.092   2.167   4.353 -0.4933  0.2983 -0.2805
    9DOPC   H3X 1197   2.011   2.096   4.379 -0.5859  0.7940  0.8658
    9DOPC   H3Y 1198   2.192   2.140   4.393  0.5273  2.8292 -0.9244
    9DOPC   C34 1199   2.096   2.148   4.197 -0.3196  0.0588 -0.5919
    9DOPC   H4X 1200   1.989   2.167   4.176 -0.7278 -2.2007 -0.8109
    9DOPC   H4Y 1201   2.124   2.044   4.169  0.9015  0.4214 -0.8118
    9DOPC   C35 1202   2.168   2.256   4.124 -0.3237  0.1686  0.0641
    9DOPC   H5X 1203   2.100   2.344   4.131 -2.3937 -1.3940  0.2890
    9DOPC   H5Y 1204   2.171   2.225   4.017 -0.0998  1.6270 -0.3833
    9DOPC   C36 1205   2.310   2.282   4.167 -0.4589 -0.2420 -0.0459
    9DOPC   H6X 1206   2.343   2.294   4.273  2.7404 -2.3926 -0.6392
    9DOPC   H6Y 1207   2.365   2.195   4.126  2.1990  0.1891  2.2664
    9DOPC   C37 1208   2.377   2.403   4.094 -0.2995 -0.0119  0.2420
    9DOPC   H7X 1209   2.362   2.384   3.986  1.1226  3.4979 -0.7194
    9DOPC   H7Y 1210   2.316   2.488   4.134 -0.7478 -1.2730  2.3602
    9DOPC   C38 1211   2.526   2.426   4.142  0.3034  0.1957 -0.1078
    9DOPC   H8X 1212   2.592   2.345   4.104  1.7189  1.5022 -0.5468
    9DOPC   H8Y 1213   2.533   2.422   4.252 -0.4578  2.1983  0.0437
    9DOPC   C39 1214   2.581   2.547   4.075  0.0715 -0.2492 -0.5499
    9DOPC   H9X 1215   2.534   2.643   4.102 -0.7971 -0.6721 -0.5413
    9DOPC  C310 1216   2.686   2.560   4.003  0.1736  0.4373  0.0388
    9DOPC  H10X 1217   2.717   2.659   3.966  1.4956 -0.2152 -0.6827
    9DOPC  C311 1218   2.789   2.452   3.979 -0.1918  0.2570  0.4874
    9DOPC  H11X 1219   2.822   2.403   4.073  2.8248 -1.0071 -1.0638
    9DOPC  H11Y 1220   2.884   2.499   3.946 -0.2984 -1.1337 -2.0608
    9DOPC  C312 1221   2.760   2.337   3.879  0.1708 -0.1638 -0.3472
    9DOPC  H12X 1222   2.679   2.276   3.923  0.5648 -1.9068 -1.9110
    9DOPC  H12Y 1223   2.842   2.262   3.882 -0.6855 -1.0807  0.6159
    9DOPC  C313 1224   2.728   2.368   3.727  0.5399  0.2210  0.6784
    9DOPC  H13X 1225   2.737   2.277   3.665 -0.6221  1.1616 -0.9686
    9DOPC  H13Y 1226   2.622   2.403   3.725 -0.1251 -1.6798  0.5390
    9DOPC  C314 1227   2.808   2.479   3.665 -0.0546 -0.4357  0.4334
    9DOPC  H14X 1228   2.778   2.577   3.710 -1.9305 -0.3231 -0.9570
    9DOPC  H14Y 1229   2.917   2.461   3.678 -0.0693  0.2357  1.7068
    9DOPC  C315 1230   2.781   2.487   3.513 -0.1786  0.1334 -0.2059
    9DOPC  H15X 1231   2.794   2.592   3.479  0.8696  0.2572  0.5356
    9DOPC  H15Y 1232   2.685   2.446   3.477  0.3007 -1.4235  0.2368
    9DOPC  C316 1233   2.887   2.401   3.440  0.1179  0.0558 -0.2890
    9DOPC  H16X 1234   2.989   2.444   3.442  0.2712 -0.1966  3.5277
    9DOPC  H16Y 1235   2.908   2.308   3.496 -2.3758  0.1528  0.9727
    9DOPC  C317 1236   2.851   2.363   3.294  0.8913  0.5977 -0.6932
    9DOPC  H17X 1237   2.769   2.426   3.254 -2.0301 -1.8599  1.0477
    9DOPC  H17Y 1238   2.949   2.370   3.241  1.3787  0.2961  0.1503
    9DOPC  C318 1239   2.804   2.220   3.270  0.3541 -0.2046  0.2639
    9DOPC  H18X 1240   2.749   2.177   3.357  0.7408  0.0075  0.6193
    9DOPC  H18Y 1241   2.730   2.230   3.188 -0.8411  3.7111  1.6035
    9DOPC  H18Z 1242   2.886   2.149   3.244  0.5985 -0.5449  1.8681
   10DOPC     N 1243   3.614   7.211   5.781 -0.5835 -0.4155  0.4692
   10DOPC   C12 1244   3.650   7.139   5.648 -1.2172 -0.1808  0.4437
   10DOPC  H12A 1245   3.602   7.044   5.636 -0.6366 -0.2888 -1.3721
   10DOPC  H12B 1246   3.753   7.107   5.652 -1.7570 -2.0263  0.1645
   10DOPC   C13 1247   3.667   7.352   5.784  0.7406  0.0361  0.3138
   10DOPC  H13A 1248   3.771   7.347   5.754  0.6887 -2.5998  0.3449
   10DOPC  H13B 1249   3.617   7.426   5.724  1.3577 -0.2201 -0.5279
   10DOPC  H13C 1250   3.662   7.399   5.881  1.4202 -1.8959  1.3437
   10DOPC   C14 1251   3.676   7.139   5.898 -0.4760 -0.3974  0.0708
   10DOPC  H14A 1252   3.633   7.173   5.991 -1.4627 -2.4638  0.4360
   10DOPC  H14B 1253   3.649   7.035   5.890  0.8387 -0.7900  0.4938
   10DOPC  H14C 1254   3.781   7.160   5.891 -0.6517  0.4455 -0.1040
   10DOPC   C15 1255   3.466   7.213   5.799 -0.0627 -0.4303  0.1562
   10DOPC  H15A 1256   3.434   7.281   5.876 -1.3571 -1.4339  0.5310
   10DOPC  H15B 1257   3.413   7.121   5.817 -0.0357  0.0485  3.2552
   10DOPC  H15C 1258   3.412   7.255   5.715 -1.6508  0.0105  1.3507
   10DOPC   C11 1259   3.611   7.211   5.513 -0.4498 -0.5327 -0.7262
   10DOPC  H11A 1260   3.509   7.247   5.539  0.2335  0.2410  1.0904
   10DOPC  H11B 1261   3.670   7.302   5.489 -0.9178  0.1925  0.7672
   10DOPC     P 1262   3.737   7.071   5.331  0.1372  0.0917  0.2124
   10DOPC   O13 1263   3.689   6.956   5.249  0.1331 -0.6478  0.4931
   10DOPC   O14 1264   3.852   7.047   5.415  0.0921 -0.1829 -0.1545
   10DOPC   O12 1265   3.610   7.126   5.402 -0.1751  0.1472  0.5485
   10DOPC   O11 1266   3.769   7.192   5.234 -0.0116  0.0060  0.6044
   10DOPC    C1 1267   3.656   7.257   5.172  0.0276  0.4389 -0.0630
   10DOPC    HA 1268   3.618   7.331   5.246 -1.1471 -1.9987  1.8934
   10DOPC    HB 1269   3.567   7.193   5.157  1.5359 -1.8212  0.1707
   10DOPC    C2 1270   3.698   7.321   5.038 -0.4267 -0.0000  0.3015
   10DOPC    HS 1271   3.714   7.232   4.974  1.6523  1.1172 -0.8368
   10DOPC   O21 1272   3.818   7.399   5.053 -0.6720  0.6402  0.0103
   10DOPC   C21 1273   3.887   7.413   4.937 -0.5732  0.2748 -0.1258
   10DOPC   O22 1274   3.877   7.343   4.837  0.4271 -0.8118  0.5982
   10DOPC   C22 1275   3.998   7.516   4.949 -0.4412  1.0029  0.4660
   10DOPC   H2R 1276   4.094   7.461   4.935 -0.7757  1.0944 -3.3749
   10DOPC   H2S 1277   4.002   7.556   5.052 -4.0832 -0.4693  1.3413
   10DOPC    C3 1278   3.583   7.395   4.985  0.2241 -0.1698 -0.3959
   10DOPC    HX 1279   3.573   7.489   5.045 -1.1860 -1.0374  0.7994
   10DOPC    HY 1280   3.489   7.337   4.996  0.8465 -1.3984 -1.3011
   10DOPC   O31 1281   3.596   7.432   4.845  0.4079 -0.2430 -0.1070
   10DOPC   C31 1282   3.536   7.354   4.755  0.1309 -0.4928 -0.2666
   10DOPC   O32 1283   3.468   7.252   4.776 -0.3110 -0.3241 -0.3181
   10DOPC   C32 1284   3.564   7.414   4.615  0.7656 -0.4828  0.2127
   10DOPC   H2X 1285   3.553   7.524   4.611  0.5077 -0.4835  0.7853
   10DOPC   H2Y 1286   3.668   7.379   4.594  0.9625 -0.5103  1.1902
   10DOPC   C23 1287   3.996   7.627   4.845  0.0597  0.2270  0.5829
   10DOPC   H3R 1288   3.962   7.588   4.747  4.3125 -2.3512 -0.1061
   10DOPC   H3S 1289   4.097   7.670   4.828  0.0934 -0.8176 -2.2437
   10DOPC   C24 1290   3.896   7.739   4.883  0.1935 -0.0881 -0.0822
   10DOPC   H4R 1291   3.946   7.792   4.967 -0.0534  0.8463 -0.5050
   10DOPC   H4S 1292   3.800   7.697   4.921 -0.6325  1.3935 -0.4469
   10DOPC   C25 1293   3.856   7.848   4.775 -0.0458 -0.1874 -0.1633
   10DOPC   H5R 1294   3.940   7.919   4.766  0.3923 -0.0208  3.6645
   10DOPC   H5S 1295   3.767   7.902   4.816  1.3048  2.7446 -0.8606
   10DOPC   C26 1296   3.831   7.799   4.633 -0.6439 -0.5914 -0.0220
   10DOPC   H6R 1297   3.725   7.816   4.602 -0.1094  1.5658 -0.8989
   10DOPC   H6S 1298   3.833   7.689   4.623 -1.4125 -0.6359  0.2566
   10DOPC   C27 1299   3.922   7.860   4.521  0.2346  0.2123 -0.3088
   10DOPC   H7R 1300   4.017   7.803   4.515  0.1506  0.1454 -1.0997
   10DOPC   H7S 1301   3.960   7.955   4.565 -2.9639  1.5673 -0.2212
   10DOPC   C28 1302   3.853   7.859   4.381  1.2527  0.2715 -1.1099
   10DOPC   H8R 1303   3.930   7.885   4.305  2.0652  1.4493  0.0850
   10DOPC   H8S 1304   3.772   7.935   4.378  1.8519  1.0655  1.0183
   10DOPC   C29 1305   3.810   7.717   4.341 -0.0024  0.5005 -0.5753
   10DOPC   H9R 1306   3.859   7.634   4.394  0.4789  1.2160  0.1257
   10DOPC  C210 1307   3.716   7.679   4.248  0.7214 -0.5319  0.1458
   10DOPC  H10R 1308   3.696   7.572   4.229 -2.2324  0.1661 -1.2229
   10DOPC  C211 1309   3.627   7.780   4.177 -0.5786  0.2720 -0.6172
   10DOPC  H11R 1310   3.641   7.884   4.212 -1.4387  0.9417 -2.1527
   10DOPC  H11S 1311   3.524   7.739   4.186  0.6174 -3.0243 -0.4242
   10DOPC  C212 1312   3.656   7.789   4.026  0.6313 -0.3755  0.2725
   10DOPC  H12R 1313   3.564   7.841   3.992  0.8725  0.9582  1.5602
   10DOPC  H12S 1314   3.661   7.690   3.977  0.4900 -1.2507  1.9599
   10DOPC  C213 1315   3.776   7.876   3.994  0.0087 -0.9311 -0.3351
   10DOPC  H13R 1316   3.865   7.809   3.991  0.7476  0.0526 -1.1964
   10DOPC  H13S 1317   3.794   7.951   4.073 -2.4796  0.7228 -1.2362
   10DOPC  C214 1318   3.772   7.963   3.864 -0.0284  1.3259  0.1688
   10DOPC  H14R 1319   3.856   8.035   3.864  1.3508 -0.1363  2.5548
   10DOPC  H14S 1320   3.685   8.032   3.868  0.2663  1.6320  2.6587
   10DOPC  C215 1321   3.771   7.878   3.735 -1.0696 -0.3213 -0.2679
   10DOPC  H15R 1322   3.682   7.812   3.727 -0.1668 -1.3563 -2.2624
   10DOPC  H15S 1323   3.861   7.814   3.743 -0.4494  0.7236  2.0919
   10DOPC  C216 1324   3.783   7.963   3.607  0.4701 -0.3135 -0.0333
   10DOPC  H16R 1325   3.864   8.036   3.625 -0.8160  1.2138 -0.2298
   10DOPC  H16S 1326   3.695   8.025   3.579  0.6493  0.1814  0.4997
   10DOPC  C217 1327   3.835   7.882   3.489 -0.4050 -0.3277 -0.1305
   10DOPC  H17R 1328   3.945   7.865   3.498 -0.0580  2.4989  2.8781
   10DOPC  H17S 1329   3.817   7.945   3.400  0.1841  0.8608  0.5625
   10DOPC  C218 1330   3.766   7.749   3.468  0.0212  0.7832  0.0930
   10DOPC  H18R 1331   3.816   7.670   3.529  0.4871  0.3312 -0.8550
   10DOPC  H18S 1332   3.786   7.718   3.363  1.3769  0.3017  0.4689
   10DOPC  H18T 1333   3.656   7.742   3.480 -0.3501 -4.1954 -3.0917
   10DOPC   C33 1334   3.483   7.346   4.496  0.1684 -0.2854  0.4760
   10DOPC   H3X 1335   3.372   7.350   4.503 -0.0008 -0.9581 -1.2685
   10DOPC   H3Y 1336   3.518   7.241   4.507 -1.3243 -0.8602 -0.1034
   10DOPC   C34 1337   3.536   7.387   4.357  0.1943 -1.0580 -0.2435
   10DOPC   H4X 1338   3.640   7.420   4.379  0.3339 -1.8994  0.3980
   10DOPC   H4Y 1339   3.489   7.486   4.338 -1.0080 -1.2637  1.3697
   10DOPC   C35 1340   3.539   7.280   4.247  0.3848  0.8042  0.3562
   10DOPC   H5X 1341   3.433   7.270   4.217  0.8210 -0.8997 -0.7917
   10DOPC   H5Y 1342   3.573   7.188   4.298  0.6272  1.2786  1.0671
   10DOPC   C36 1343   3.624   7.314   4.125 -0.2361  0.0544  0.3835
   10DOPC   H6X 1344   3.598   7.418   4.095  0.3970 -0.2121 -1.1793
   10DOPC   H6Y 1345   3.732   7.310   4.151 -0.2628 -2.1162  0.3475
   10DOPC   C37 1346   3.599   7.234   3.992 -0.3109  0.1785 -0.5235
   10DOPC   H7X 1347   3.612   7.127   4.020 -0.2215 -0.2820 -2.2115
   10DOPC   H7Y 1348   3.497   7.247   3.950 -2.0463  0.6551  3.4022
   10DOPC   C38 1349   3.704   7.257   3.884 -0.0912 -0.4697 -0.0477
   10DOPC   H8X 1350   3.705   7.367   3.870 -0.1840 -0.7858 -3.2914
   10DOPC   H8Y 1351   3.654   7.216   3.793  0.1153 -1.0300  0.0905
   10DOPC   C39 1352   3.835   7.192   3.898  0.3852  0.2644 -0.0039
   10DOPC   H9X 1353   3.887   7.212   3.992 -0.5878  1.9173  0.2235
   10DOPC  C310 1354   3.894   7.125   3.805 -0.0170  0.2880  0.1776
   10DOPC  H10X 1355   4.001   7.098   3.818  0.5464  2.9335  1.7307
   10DOPC  C311 1356   3.849   7.108   3.664 -0.1163  0.2495  0.2466
   10DOPC  H11X 1357   3.748   7.063   3.670  0.1649 -0.1686  2.8978
   10DOPC  H11Y 1358   3.912   7.029   3.618  1.6953  0.9560  1.4025
   10DOPC  C312 1359   3.845   7.234   3.573 -0.1319  0.4992 -0.0924
   10DOPC  H12X 1360   3.947   7.278   3.568 -0.0574  0.1999 -1.5180
   10DOPC  H12Y 1361   3.773   7.313   3.605 -1.1751  0.1187 -1.4192
   10DOPC  C313 1362   3.813   7.196   3.430 -0.2385  0.5084  0.4115
   10DOPC  H13X 1363   3.883   7.120   3.391  1.7074  2.3355  0.1399
   10DOPC  H13Y 1364   3.710   7.157   3.419  0.5461 -1.3253 -0.8957
   10DOPC  C314 1365   3.819   7.316   3.330  0.3963  0.6048 -0.0338
   10DOPC  H14X 1366   3.806   7.412   3.385  0.5714 -0.3755  1.8276
   10DOPC  H14Y 1367   3.921   7.323   3.287  0.7209  1.4245  0.8160
   10DOPC  C315 1368   3.711   7.301   3.214  0.0142 -1.0328  1.1070
   10DOPC  H15X 1369   3.718   7.199   3.170 -0.8808  0.6398 -3.5176
   10DOPC  H15Y 1370   3.734   7.371   3.131 -2.5580 -0.8376  0.4866
   10DOPC  C316 1371   3.567   7.331   3.265 -0.1061  0.9978 -0.0810
   10DOPC  H16X 1372   3.550   7.284   3.364  0.8778  0.4381 -0.1723
   10DOPC  H16Y 1373   3.565   7.440   3.287 -1.2337  0.7851  0.9724
   10DOPC  C317 1374   3.457   7.298   3.159  0.4620  0.4805 -0.2349
   10DOPC  H17X 1375   3.476   7.192   3.133  1.2616  0.2623  1.1522
   10DOPC  H17Y 1376   3.353   7.314   3.197  1.5250  3.1787  1.8594
   10DOPC  C318 1377   3.461   7.389   3.036 -0.1320 -0.5442  0.6560
   10DOPC  H18X 1378   3.465   7.499   3.055  2.2915 -0.8068  2.0852
   10DOPC  H18Y 1379   3.556   7.371   2.981  0.6609 -0.1763  1.8618
   10DOPC  H18Z 1380   3.380   7.365   2.964  0.2074 -1.0081  0.4280
   11DOPC     N 1381   4.760   8.105   5.689  0.7173  0.0902  0.0094
   11DOPC   C12 1382   4.710   8.217   5.600  0.0200  0.0306 -0.8647
   11DOPC  H12A 1383   4.798   8.261   5.555  0.2885  3.6896  2.6662
   11DOPC  H12B 1384   4.667   8.296   5.659  0.0372 -0.5524 -0.0580
   11DOPC   C13 1385   4.828   7.997   5.608 -0.6582  0.5373 -0.1424
   11DOPC  H13A 1386   4.767   7.962   5.526  2.7199 -0.9663 -2.2239
   11DOPC  H13B 1387   4.917   8.028   5.557 -0.3777 -0.6244 -0.3883
   11DOPC  H13C 1388   4.861   7.917   5.673  0.2896  0.2594 -0.9413
   11DOPC   C14 1389   4.635   8.044   5.754 -1.5081  0.8235 -0.6120
   11DOPC  H14A 1390   4.567   8.103   5.814 -2.2584 -0.1039 -0.5320
   11DOPC  H14B 1391   4.572   8.017   5.670 -1.2851 -2.5271  0.1815
   11DOPC  H14C 1392   4.670   7.953   5.799  1.7042  1.1099 -2.2470
   11DOPC   C15 1393   4.852   8.165   5.790 -0.2435 -0.3022 -0.5654
   11DOPC  H15A 1394   4.856   8.098   5.874 -0.8770  1.2856  0.7870
   11DOPC  H15B 1395   4.813   8.258   5.830  4.0279  2.1359 -1.4362
   11DOPC  H15C 1396   4.947   8.195   5.747 -0.9958  0.1694 -1.9718
   11DOPC   C11 1397   4.608   8.192   5.483  0.0906  0.5491  0.0954
   11DOPC  H11A 1398   4.588   8.274   5.411  0.3985 -1.6336 -2.6351
   11DOPC  H11B 1399   4.660   8.112   5.426 -2.3756  1.1611 -3.3692
   11DOPC     P 1400   4.369   8.198   5.578  0.1625 -0.0680 -0.4306
   11DOPC   O13 1401   4.418   8.298   5.679  0.0012  0.3703  0.0994
   11DOPC   O14 1402   4.270   8.100   5.621  0.5137  0.5807  0.2909
   11DOPC   O12 1403   4.488   8.125   5.521  0.9916  0.0169 -0.2762
   11DOPC   O11 1404   4.314   8.275   5.454  0.6715 -0.1050  0.1695
   11DOPC    C1 1405   4.306   8.214   5.321  0.2272 -0.8237  0.0948
   11DOPC    HA 1406   4.250   8.118   5.317 -0.7403 -0.2457 -2.8587
   11DOPC    HB 1407   4.408   8.197   5.280  0.0892  0.6355 -0.9304
   11DOPC    C2 1408   4.231   8.301   5.215  0.4287 -0.1320  1.2467
   11DOPC    HS 1409   4.293   8.391   5.197  0.4522  0.0877  2.3277
   11DOPC   O21 1410   4.101   8.343   5.258 -0.2428  1.1576  0.0521
   11DOPC   C21 1411   4.059   8.464   5.230 -0.4737  0.0615 -0.3566
   11DOPC   O22 1412   4.127   0.013   5.174  0.6651  0.2869 -0.1832
   11DOPC   C22 1413   3.912   8.477   5.268 -0.6607 -0.0982  0.7994
   11DOPC   H2R 1414   3.881   0.042   5.231  0.6836  0.0130 -0.0836
   11DOPC   H2S 1415   3.910   8.480   5.379 -1.1819 -0.3415  0.7991
   11DOPC    C3 1416   4.222   8.227   5.079 -0.4059 -0.3461 -0.3928
   11DOPC    HX 1417   4.152   8.143   5.098  0.3683 -0.5860  1.6026
   11DOPC    HY 1418   4.320   8.181   5.056 -0.5173 -0.9504  0.3439
   11DOPC   O31 1419   4.173   8.312   4.967 -0.3168  0.6255 -0.0706
   11DOPC   C31 1420   4.263   8.399   4.929 -0.3358 -0.8524  0.3981
   11DOPC   O32 1421   4.386   8.400   4.954  0.2221  0.6115  0.2025
   11DOPC   C32 1422   4.204   8.501   4.845  0.3375  0.2142  0.1513
   11DOPC   H2X 1423   4.099   8.472   4.822  1.9761 -4.3555 -2.8779
   11DOPC   H2Y 1424   4.224   0.061   4.900  1.1490  1.2341 -1.8235
   11DOPC   C23 1425   3.816   8.370   5.202 -0.7431 -0.1590  0.0456
   11DOPC   H3R 1426   3.711   8.396   5.226 -0.0267  1.0982  2.0580
   11DOPC   H3S 1427   3.841   8.272   5.246  2.5197  1.0036  1.0535
   11DOPC   C24 1428   3.826   8.374   5.050  0.1256 -0.2281  0.2185
   11DOPC   H4R 1429   3.931   8.351   5.020  0.2862 -1.4110  1.5921
   11DOPC   H4S 1430   3.812   8.477   5.013 -1.1854 -0.7356 -0.7878
   11DOPC   C25 1431   3.731   8.277   4.967 -0.5256 -0.2011 -0.5812
   11DOPC   H5R 1432   3.628   8.313   4.990 -0.0557  0.5123  0.4536
   11DOPC   H5S 1433   3.744   8.170   4.994  1.6580  0.0161 -0.6352
   11DOPC   C26 1434   3.757   8.287   4.814  0.4310 -0.4215 -0.0961
   11DOPC   H6R 1435   3.741   8.389   4.776  0.3811 -0.4721 -0.2089
   11DOPC   H6S 1436   3.686   8.209   4.780  0.1883  0.1687 -0.9627
   11DOPC   C27 1437   3.901   8.236   4.776  0.9965  0.3713  0.1736
   11DOPC   H7R 1438   3.903   8.144   4.838 -1.0377 -0.1752 -0.4885
   11DOPC   H7S 1439   3.971   8.308   4.822  0.1574  3.0075 -2.3774
   11DOPC   C28 1440   3.909   8.216   4.623 -0.5644 -0.2508 -0.6970
   11DOPC   H8R 1441   3.836   8.138   4.594  2.3514 -3.6324  0.3653
   11DOPC   H8S 1442   4.011   8.174   4.606 -0.2793 -0.9675  2.2088
   11DOPC   C29 1443   3.892   8.352   4.550 -0.7703  0.4041  0.0751
   11DOPC   H9R 1444   3.836   8.434   4.597 -1.0138  0.4357 -0.2592
   11DOPC  C210 1445   3.944   8.392   4.437 -0.3383 -0.7774  0.0369
   11DOPC  H10R 1446   3.925   8.494   4.400 -1.3111 -1.3733 -1.2022
   11DOPC  C211 1447   4.031   8.313   4.349 -0.3076  0.0022 -0.2052
   11DOPC  H11R 1448   4.029   8.203   4.356 -0.9677 -0.0152 -0.5836
   11DOPC  H11S 1449   4.138   8.325   4.378  0.1819 -2.7432 -0.6599
   11DOPC  C212 1450   4.018   8.354   4.201  0.2154  0.2300 -0.1634
   11DOPC  H12R 1451   4.098   8.318   4.134  0.0651  0.0002 -0.2197
   11DOPC  H12S 1452   4.004   8.465   4.198  0.8434  0.2958 -3.3948
   11DOPC  C213 1453   3.877   8.296   4.153 -0.8161  0.1944 -0.0945
   11DOPC  H13R 1454   3.789   8.336   4.208 -1.3507  0.7264 -1.3174
   11DOPC  H13S 1455   3.871   8.185   4.163 -1.0363  0.1126 -1.0908
   11DOPC  C214 1456   3.848   8.337   4.011 -0.3177  0.1503  0.3937
   11DOPC  H14R 1457   3.755   8.285   3.979 -1.1267  1.8500 -0.1575
   11DOPC  H14S 1458   3.935   8.312   3.947 -0.2309  1.6531 -0.1198
   11DOPC  C215 1459   3.828   8.483   3.975 -0.0393  0.1301 -0.3831
   11DOPC  H15R 1460   3.921   0.003   4.001 -0.9576  0.6228  2.1665
   11DOPC  H15S 1461   3.747   8.534   4.032  0.4174 -0.6918  1.0681
   11DOPC  C216 1462   3.803   8.517   3.824 -0.7943 -0.0904  0.0866
   11DOPC  H16R 1463   3.792   0.092   3.821 -2.9545 -0.2454  0.6172
   11DOPC  H16S 1464   3.712   8.466   3.786  0.5700 -1.1524 -1.9447
   11DOPC  C217 1465   3.927   8.473   3.740 -0.5054  0.0453 -0.3108
   11DOPC  H17R 1466   3.940   8.363   3.738  1.5082  0.2431 -2.5610
   11DOPC  H17S 1467   4.015   8.522   3.787 -0.8037  0.7689 -0.4941
   11DOPC  C218 1468   3.933   8.521   3.595 -0.4799  0.1448  0.7842
   11DOPC  H18R 1469   3.999   8.447   3.544  0.4227  0.3391  1.6389
   11DOPC  H18S 1470   3.990   0.081   3.585  0.3537 -0.4862 -1.0514
   11DOPC  H18T 1471   3.832   8.513   3.550 -0.0292  0.3232 -0.2980
   11DOPC   C33 1472   4.279   8.504   4.714  0.4469 -0.9182  0.5911
   11DOPC   H3X 1473   4.271   8.418   4.645  1.1635  0.0686 -0.7553
   11DOPC   H3Y 1474   4.382   0.008   4.729 -0.6840  3.0454 -0.6388
   11DOPC   C34 1475   4.209   0.073   4.633 -0.3020 -1.0096  0.7898
   11DOPC   H4X 1476   4.202   0.165   4.695 -0.7356 -1.0286  0.7741
   11DOPC   H4Y 1477   4.115   0.025   4.598 -0.2488  0.3886 -1.4517
   11DOPC   C35 1478   4.289   0.099   4.506 -0.0950 -0.3002 -0.0293
   11DOPC   H5X 1479   4.294   0.009   4.442 -0.1098 -0.1043 -0.3113
   11DOPC   H5Y 1480   4.397   0.107   4.533 -0.1901 -1.4421  0.7274
   11DOPC   C36 1481   4.244   0.215   4.422 -0.0764  0.3895 -0.5782
   11DOPC   H6X 1482   4.138   0.190   4.401  0.0279 -0.5801 -0.0197
   11DOPC   H6Y 1483   4.237   0.308   4.484  0.3154 -0.0521  0.1459
   11DOPC   C37 1484   4.331   0.261   4.298 -0.8561  0.0410  0.8432
   11DOPC   H7X 1485   4.285   0.351   4.253  0.0549  1.7396  3.1089
   11DOPC   H7Y 1486   4.433   0.291   4.329  0.7313 -2.6787 -1.3199
   11DOPC   C38 1487   4.371   0.147   4.195  0.4847 -0.2022 -0.1737
   11DOPC   H8X 1488   4.279   0.088   4.178  0.3834 -0.4972  1.2247
   11DOPC   H8Y 1489   4.443   0.073   4.238 -1.5653 -1.5910  1.0439
   11DOPC   C39 1490   4.416   0.216   4.073 -0.8594 -0.3641  0.3816
   11DOPC   H9X 1491   4.491   0.294   4.092 -3.0601  2.0630 -0.2958
   11DOPC  C310 1492   4.375   0.193   3.947 -0.4284 -0.1388  0.2903
   11DOPC  H10X 1493   4.407   0.259   3.865  1.4999  0.2634  1.3218
   11DOPC  C311 1494   4.267   0.099   3.892 -0.2195  0.6034 -0.0658
   11DOPC  H11X 1495   4.174   0.155   3.869 -1.3710 -1.4031 -0.4553
   11DOPC  H11Y 1496   4.242   0.028   3.973  0.2105  1.2997  0.6897
   11DOPC  C312 1497   4.323   0.015   3.771 -0.3691 -0.0556 -0.3702
   11DOPC  H12X 1498   4.243   8.476   3.753 -0.8449  0.5394 -0.7605
   11DOPC  H12Y 1499   4.415   8.492   3.790 -0.2775  0.2076 -0.0019
   11DOPC  C313 1500   4.326   0.095   3.642 -0.3258 -0.6491  0.4003
   11DOPC  H13X 1501   4.231   0.148   3.621  0.5384  0.4799 -0.8518
   11DOPC  H13Y 1502   4.402   0.176   3.643 -0.6239 -0.3295 -0.8009
   11DOPC  C314 1503   4.340   0.013   3.515 -0.3639  1.0395  0.4761
   11DOPC  H14X 1504   4.423   8.477   3.537  0.3335  2.4968  3.0557
   11DOPC  H14Y 1505   4.243   8.495   3.507  0.8068 -1.4524  1.6253
   11DOPC  C315 1506   4.385   0.087   3.397 -0.9814 -0.3389  0.0870
   11DOPC  H15X 1507   4.385   0.197   3.414  1.3180 -0.3504  0.4395
   11DOPC  H15Y 1508   4.330   0.059   3.305  1.0703 -0.3088 -1.2034
   11DOPC  C316 1509   4.538   0.056   3.362  0.1427 -0.2146 -0.2614
   11DOPC  H16X 1510   4.575   0.144   3.304  2.8235 -0.2817  1.1420
   11DOPC  H16Y 1511   4.596   0.056   3.458 -1.7172 -0.0393  0.9116
   11DOPC  C317 1512   4.574   8.472   3.275 -0.2994  0.7188 -0.2252
   11DOPC  H17X 1513   4.571   8.386   3.346  3.0640  1.1100  0.5597
   11DOPC  H17Y 1514   4.502   8.456   3.192  0.8369  0.4957 -1.1906
   11DOPC  C318 1515   4.717   8.463   3.207 -0.3440  0.2623  0.0085
   11DOPC  H18X 1516   4.783   8.485   3.294 -1.5232 -0.3835  1.0900
   11DOPC  H18Y 1517   4.742   8.360   3.172  0.1687  0.2289  0.4394
   11DOPC  H18Z 1518   4.736   0.005   3.130 -1.1273 -0.0645 -0.5184
   12DOPC     N 1519   2.890   5.644   5.507 -0.4487  0.0582 -0.4842
   12DOPC   C12 1520   2.900   5.793   5.505  0.1135 -0.8833 -0.5972
   12DOPC  H12A 1521   2.960   5.816   5.418  2.3190 -0.9672  0.8180
   12DOPC  H12B 1522   2.952   5.826   5.594  0.8161 -1.0388 -0.9436
   12DOPC   C13 1523   3.020   5.567   5.519  0.2868 -0.3484 -0.0980
   12DOPC  H13A 1524   3.054   5.560   5.621  2.4166 -0.8385 -0.7995
   12DOPC  H13B 1525   3.010   5.467   5.480  3.0701  0.0704 -2.1680
   12DOPC  H13C 1526   3.090   5.615   5.453 -1.4861  3.0232  0.2320
   12DOPC   C14 1527   2.841   5.603   5.373 -0.3506  0.2380 -0.0440
   12DOPC  H14A 1528   2.906   5.642   5.296  1.9906 -1.8933  0.7409
   12DOPC  H14B 1529   2.852   5.496   5.369  0.6989  0.3146  0.4379
   12DOPC  H14C 1530   2.740   5.640   5.365 -0.6241  0.3297  2.7162
   12DOPC   C15 1531   2.811   5.586   5.614 -0.2076 -0.6005 -0.3675
   12DOPC  H15A 1532   2.828   5.480   5.624  0.3184 -0.4776  0.0730
   12DOPC  H15B 1533   2.705   5.608   5.608 -0.7137 -2.6638  0.3269
   12DOPC  H15C 1534   2.841   5.634   5.706  0.9961  0.9954 -1.5269
   12DOPC   C11 1535   2.760   5.872   5.503 -0.6455 -0.3123  0.9450
   12DOPC  H11A 1536   2.790   5.971   5.463  0.0546  0.2129  2.7244
   12DOPC  H11B 1537   2.698   5.815   5.430 -0.8569 -2.7727  2.9094
   12DOPC     P 1538   2.541   5.861   5.652  0.2821 -0.2785  0.3990
   12DOPC   O13 1539   2.518   5.935   5.782  0.4309  0.5328 -0.6556
   12DOPC   O14 1540   2.510   5.715   5.651  0.2030  0.3192  0.3749
   12DOPC   O12 1541   2.696   5.882   5.625  0.0660 -0.1393 -0.0739
   12DOPC   O11 1542   2.487   5.945   5.533  0.2622 -0.4000 -0.1932
   12DOPC    C1 1543   2.502   6.091   5.527 -0.8118  0.3874 -0.5896
   12DOPC    HA 1544   2.608   6.118   5.541  0.1432 -2.8724 -0.7998
   12DOPC    HB 1545   2.450   6.141   5.611  1.6869 -1.0994  2.0024
   12DOPC    C2 1546   2.447   6.154   5.398 -0.0990 -0.2420  0.4003
   12DOPC    HS 1547   2.342   6.117   5.392 -0.1058 -0.1720  0.0128
   12DOPC   O21 1548   2.522   6.098   5.282  0.0563 -0.4973  0.7628
   12DOPC   C21 1549   2.449   6.095   5.173  0.5541  0.1842  0.4510
   12DOPC   O22 1550   2.325   6.097   5.163 -0.5119  0.2124  0.2218
   12DOPC   C22 1551   2.543   6.094   5.053  0.2435  1.2909 -0.1699
   12DOPC   H2R 1552   2.553   5.984   5.042 -3.4617  0.6970  1.0678
   12DOPC   H2S 1553   2.643   6.134   5.079  2.2534 -0.4268 -4.3371
   12DOPC    C3 1554   2.464   6.311   5.397  0.2870 -0.9552  0.2516
   12DOPC    HX 1555   2.571   6.340   5.393  0.5704 -1.6326  2.1623
   12DOPC    HY 1556   2.427   6.371   5.484  0.3036 -0.7884  0.1445
   12DOPC   O31 1557   2.409   6.363   5.273  0.5216 -0.3084  0.6386
   12DOPC   C31 1558   2.279   6.366   5.257 -0.3376  0.3563 -0.2959
   12DOPC   O32 1559   2.189   6.320   5.331  0.0982  0.5838 -0.0507
   12DOPC   C32 1560   2.243   6.450   5.141 -0.1885  0.0600  1.3095
   12DOPC   H2X 1561   2.325   6.436   5.067  0.5552  2.0514  1.6837
   12DOPC   H2Y 1562   2.150   6.408   5.097  0.7223 -0.1595 -0.5216
   12DOPC   C23 1563   2.503   6.179   4.940 -0.7087 -0.2624 -0.3123
   12DOPC   H3R 1564   2.591   6.234   4.900  1.3041 -0.9880  2.7095
   12DOPC   H3S 1565   2.437   6.265   4.962  1.5333  2.1203 -2.2275
   12DOPC   C24 1566   2.448   6.092   4.832  0.0762  0.9132  0.1389
   12DOPC   H4R 1567   2.352   6.051   4.868 -0.0386 -0.1195 -1.2693
   12DOPC   H4S 1568   2.524   6.017   4.800 -1.2129 -0.2080 -0.3593
   12DOPC   C25 1569   2.417   6.189   4.714 -0.5131  0.8724  0.7108
   12DOPC   H5R 1570   2.367   6.278   4.758 -0.6141  1.0907  0.1623
   12DOPC   H5S 1571   2.337   6.133   4.661 -0.8076  0.7871  1.2346
   12DOPC   C26 1572   2.538   6.220   4.627  0.4586  0.6440 -0.2236
   12DOPC   H6R 1573   2.575   6.119   4.598  0.6934  0.1608  1.6447
   12DOPC   H6S 1574   2.619   6.272   4.681  0.6826  0.4343 -0.3566
   12DOPC   C27 1575   2.511   6.288   4.491 -1.1231 -0.3666 -0.0572
   12DOPC   H7R 1576   2.483   6.395   4.497  0.8103  0.0833  2.9181
   12DOPC   H7S 1577   2.423   6.236   4.448  0.1295 -2.1902 -0.5319
   12DOPC   C28 1578   2.640   6.279   4.399  0.6872 -0.7404 -0.0406
   12DOPC   H8R 1579   2.609   6.273   4.292 -1.3934 -0.7277  0.5146
   12DOPC   H8S 1580   2.701   6.189   4.419  1.0542  0.0689  3.0609
   12DOPC   C29 1581   2.719   6.402   4.435 -0.1388  0.2589  0.1320
   12DOPC   H9R 1582   2.728   6.430   4.541  2.3543  0.1956  0.0077
   12DOPC  C210 1583   2.814   6.464   4.356 -0.1446  0.7557 -0.0043
   12DOPC  H10R 1584   2.854   6.560   4.391 -1.2997  1.4864 -0.6098
   12DOPC  C211 1585   2.848   6.420   4.215  0.3323  0.3873 -0.1099
   12DOPC  H11R 1586   2.813   6.317   4.193 -0.3835  0.2415  1.5672
   12DOPC  H11S 1587   2.958   6.430   4.200  0.4891 -1.0561 -0.0513
   12DOPC  C212 1588   2.791   6.519   4.110 -0.1335 -0.7965  0.4069
   12DOPC  H12R 1589   2.816   6.486   4.007 -0.2538 -0.4020  0.2483
   12DOPC  H12S 1590   2.828   6.623   4.123 -1.3144 -0.4189  0.9105
   12DOPC  C213 1591   2.637   6.532   4.133  0.5352 -0.2435 -0.1607
   12DOPC  H13R 1592   2.621   6.604   4.216 -0.8383 -0.8262  0.1054
   12DOPC  H13S 1593   2.591   6.434   4.157  0.5382 -0.5983 -1.5066
   12DOPC  C214 1594   2.560   6.577   4.011 -0.6634  0.7485 -0.1185
   12DOPC  H14R 1595   2.453   6.563   4.034 -0.3721 -2.5401 -0.2210
   12DOPC  H14S 1596   2.579   6.511   3.923 -2.0473  0.6443 -0.3509
   12DOPC  C215 1597   2.602   6.719   3.980 -0.5952  0.2175 -0.3786
   12DOPC  H15R 1598   2.673   6.705   3.896 -1.6848 -1.2495 -1.1083
   12DOPC  H15S 1599   2.646   6.772   4.067 -2.3413 -0.4603  0.9893
   12DOPC  C216 1600   2.491   6.797   3.920 -0.0079 -0.0305  0.3264
   12DOPC  H16R 1601   2.525   6.903   3.921  0.9711 -0.2720 -1.7478
   12DOPC  H16S 1602   2.398   6.794   3.981 -0.8398 -0.3989 -0.9257
   12DOPC  C217 1603   2.460   6.764   3.775  0.7182 -0.3453 -0.4888
   12DOPC  H17R 1604   2.428   6.658   3.772 -0.4949  0.0152 -0.5132
   12DOPC  H17S 1605   2.552   6.777   3.714  2.1222  0.0284  1.5943
   12DOPC  C218 1606   2.344   6.857   3.734 -0.2309 -0.5598  0.4899
   12DOPC  H18R 1607   2.378   6.957   3.766  0.1455 -0.2089 -0.9569
   12DOPC  H18S 1608   2.248   6.848   3.789 -0.4158 -0.8451  0.1238
   12DOPC  H18T 1609   2.330   6.862   3.624  3.7851 -0.4707 -0.1616
   12DOPC   C33 1610   2.216   6.606   5.165 -0.3457  0.3892 -0.1950
   12DOPC   H3X 1611   2.308   6.664   5.187  0.6388 -1.5478  1.0577
   12DOPC   H3Y 1612   2.157   6.602   5.259 -0.9812 -1.7811 -0.6352
   12DOPC   C34 1613   2.120   6.678   5.071  0.1388  0.2391 -0.0733
   12DOPC   H4X 1614   2.105   6.775   5.122  1.9863  0.5839 -0.1403
   12DOPC   H4Y 1615   2.023   6.624   5.063  0.1266  0.5056 -2.9025
   12DOPC   C35 1616   2.162   6.714   4.926 -0.6082 -0.0606 -0.0582
   12DOPC   H5X 1617   2.208   6.622   4.884  0.5255 -0.9055  2.8011
   12DOPC   H5Y 1618   2.236   6.797   4.932  2.3576 -2.5556  0.5641
   12DOPC   C36 1619   2.042   6.771   4.851 -0.3684 -0.1924  0.2330
   12DOPC   H6X 1620   2.081   6.786   4.748  1.2510 -1.1146  0.6717
   12DOPC   H6Y 1621   1.962   6.694   4.842 -0.4961  0.0873 -1.3865
   12DOPC   C37 1622   1.992   6.911   4.903 -0.0482  0.2000  0.4078
   12DOPC   H7X 1623   1.920   6.898   4.986  0.7272  2.1546  1.4560
   12DOPC   H7Y 1624   2.080   6.961   4.949 -0.9551  0.9263  1.4131
   12DOPC   C38 1625   1.951   7.001   4.783 -0.3881 -0.0986 -0.4899
   12DOPC   H8X 1626   1.908   6.940   4.700 -0.5543 -3.0378  1.5877
   12DOPC   H8Y 1627   2.037   7.043   4.726 -1.0305  2.6659  0.4556
   12DOPC   C39 1628   1.868   7.115   4.838  0.1437  0.6238 -0.0820
   12DOPC   H9X 1629   1.788   7.082   4.905  0.4773 -0.0459  0.0003
   12DOPC  C310 1630   1.892   7.240   4.812  0.0557  0.3098 -0.1992
   12DOPC  H10X 1631   1.838   7.322   4.862 -1.0227  0.1978 -1.1395
   12DOPC  C311 1632   1.995   7.303   4.718  0.4996 -0.0533  0.0616
   12DOPC  H11X 1633   2.040   7.228   4.649 -1.1481 -2.3265  1.3366
   12DOPC  H11Y 1634   2.071   7.360   4.777 -0.8069  0.6215  1.1440
   12DOPC  C312 1635   1.947   7.409   4.622  0.3772 -0.0577  1.5890
   12DOPC  H12X 1636   1.918   7.504   4.671 -0.0455 -0.1462  1.5159
   12DOPC  H12Y 1637   1.847   7.382   4.582  0.1357  1.7336  0.9175
   12DOPC  C313 1638   2.046   7.437   4.510  0.3330 -0.0354 -0.0644
   12DOPC  H13X 1639   2.129   7.498   4.550 -0.2632  0.8187 -0.1105
   12DOPC  H13Y 1640   2.079   7.347   4.452 -0.9208  1.4397 -3.3193
   12DOPC  C314 1641   1.979   7.523   4.394  0.2065 -0.0501 -0.5298
   12DOPC  H14X 1642   1.877   7.489   4.367 -0.7625  2.4098 -0.2159
   12DOPC  H14Y 1643   1.975   7.625   4.438 -1.6151 -0.1570 -0.3892
   12DOPC  C315 1644   2.067   7.532   4.262 -0.0845 -0.4149 -0.2572
   12DOPC  H15X 1645   2.065   7.427   4.224 -1.6084 -0.4417 -0.1669
   12DOPC  H15Y 1646   2.175   7.549   4.284  0.1027 -1.4880 -0.2569
   12DOPC  C316 1647   2.001   7.636   4.166 -0.5077 -0.1998  0.1392
   12DOPC  H16X 1648   1.896   7.604   4.146 -0.6510  1.0088 -1.3047
   12DOPC  H16Y 1649   2.004   7.726   4.231  1.6465 -0.0957 -0.0480
   12DOPC  C317 1650   2.075   7.669   4.036  0.0536  0.3323  0.3898
   12DOPC  H17X 1651   2.182   7.696   4.046  0.2850 -0.4507  0.0969
   12DOPC  H17Y 1652   2.084   7.577   3.975  0.7755  0.6531 -0.0041
   12DOPC  C318 1653   2.000   7.778   3.955 -0.4544 -0.2860  0.8745
   12DOPC  H18X 1654   1.980   7.865   4.021  1.3235 -1.3005  2.9273
   12DOPC  H18Y 1655   2.051   7.810   3.862 -1.5641 -3.6671 -1.0823
   12DOPC  H18Z 1656   1.907   7.732   3.917  1.0679 -4.3007  1.4708
   13DOPC     N 1657   3.658   3.907   5.061  0.1364 -0.8936  0.6716
   13DOPC   C12 1658   3.684   4.023   5.155 -0.2621 -0.1021 -0.5041
   13DOPC  H12A 1659   3.772   4.001   5.214 -0.5169  0.6378  0.1690
   13DOPC  H12B 1660   3.611   4.023   5.234  0.2258  1.6860 -0.0046
   13DOPC   C13 1661   3.524   3.924   5.001 -0.3180  0.3848 -0.5781
   13DOPC  H13A 1662   3.527   4.019   4.950  3.8042  0.8938  0.2587
   13DOPC  H13B 1663   3.499   3.844   4.933 -0.6978 -1.5293  1.6812
   13DOPC  H13C 1664   3.452   3.926   5.081  0.3161  1.1379 -0.0100
   13DOPC   C14 1665   3.656   3.781   5.136 -0.3975 -0.1416  0.2201
   13DOPC  H14A 1666   3.567   3.777   5.197 -2.4632  0.3071 -2.5689
   13DOPC  H14B 1667   3.649   3.687   5.083 -0.5738 -1.2543  2.1302
   13DOPC  H14C 1668   3.744   3.772   5.198 -0.8302 -1.7776  0.6593
   13DOPC   C15 1669   3.763   3.896   4.956 -0.8909  0.2763 -0.6416
   13DOPC  H15A 1670   3.759   3.807   4.895  0.5830 -0.1756 -0.1208
   13DOPC  H15B 1671   3.864   3.902   4.996  0.4465 -2.3936 -3.2633
   13DOPC  H15C 1672   3.749   3.978   4.887 -1.4952  1.5245  0.8885
   13DOPC   C11 1673   3.694   4.167   5.108  0.3257  0.0063  0.2301
   13DOPC  H11A 1674   3.611   4.203   5.044  1.2474  1.7297 -0.0625
   13DOPC  H11B 1675   3.692   4.231   5.199 -2.5805  0.3439 -0.0043
   13DOPC     P 1676   3.954   4.183   5.131  0.4200  0.3091 -0.6716
   13DOPC   O13 1677   4.009   4.046   5.166  0.2795  0.3494 -0.6449
   13DOPC   O14 1678   3.920   4.274   5.244 -0.1876 -0.5524 -0.3035
   13DOPC   O12 1679   3.824   4.179   5.043 -0.2597  0.9027  0.2463
   13DOPC   O11 1680   4.054   4.255   5.033  0.5159 -0.2122  0.4817
   13DOPC    C1 1681   4.058   4.195   4.903  0.5771  0.1237 -0.7134
   13DOPC    HA 1682   3.955   4.192   4.861  0.9056 -0.0876 -1.5218
   13DOPC    HB 1683   4.100   4.093   4.900 -1.2641 -0.8623  2.2981
   13DOPC    C2 1684   4.145   4.287   4.810  0.5600 -0.7291 -0.2070
   13DOPC    HS 1685   4.242   4.305   4.862 -0.3514  1.6511  0.7992
   13DOPC   O21 1686   4.072   4.412   4.778 -0.5496 -0.0290  0.0728
   13DOPC   C21 1687   4.145   4.517   4.772  0.0487 -0.3215 -1.1857
   13DOPC   O22 1688   4.264   4.533   4.808  0.1252  0.7827  0.2794
   13DOPC   C22 1689   4.053   4.625   4.720  0.5768 -0.6467 -0.0847
   13DOPC   H2R 1690   4.121   4.714   4.721  1.8394 -1.5783 -0.0629
   13DOPC   H2S 1691   3.970   4.649   4.790 -0.6803  0.6112 -1.9216
   13DOPC    C3 1692   4.168   4.214   4.676 -0.3990 -0.7610  1.0546
   13DOPC    HX 1693   4.078   4.237   4.615 -0.1913  0.5005  1.1887
   13DOPC    HY 1694   4.168   4.106   4.699 -1.8351 -0.6751  1.5671
   13DOPC   O31 1695   4.281   4.262   4.608  0.0336 -0.2654 -0.4515
   13DOPC   C31 1696   4.397   4.230   4.664  0.6868  0.0764 -0.0300
   13DOPC   O32 1697   4.416   4.135   4.738 -0.3417  0.4406  0.3527
   13DOPC   C32 1698   4.513   4.306   4.610 -0.7093 -0.4184  0.5645
   13DOPC   H2X 1699   4.487   4.414   4.612  0.3789 -0.1615  1.6981
   13DOPC   H2Y 1700   4.595   4.296   4.684 -1.2426 -0.1411  1.2087
   13DOPC   C23 1701   4.001   4.594   4.583  0.6856  0.8003 -0.3991
   13DOPC   H3R 1702   3.920   4.668   4.566 -1.1721 -0.8794  0.6788
   13DOPC   H3S 1703   3.953   4.494   4.585  1.3274  0.4833  0.8491
   13DOPC   C24 1704   4.104   4.610   4.467  0.3455 -0.1245 -0.0657
   13DOPC   H4R 1705   4.198   4.562   4.502 -0.2401  0.2240  2.0987
   13DOPC   H4S 1706   4.124   4.718   4.446  1.0665 -0.0314  1.0212
   13DOPC   C25 1707   4.068   4.542   4.332  0.4923  0.3799  0.8475
   13DOPC   H5R 1708   3.973   4.593   4.303  0.5196 -0.0408  0.0087
   13DOPC   H5S 1709   4.052   4.434   4.351  1.4537 -0.0162 -0.5144
   13DOPC   C26 1710   4.170   4.560   4.221  0.0309 -1.0386 -0.2479
   13DOPC   H6R 1711   4.263   4.537   4.278 -0.2543 -1.9917 -0.1451
   13DOPC   H6S 1712   4.169   4.667   4.191  0.4156 -0.1755  2.5738
   13DOPC   C27 1713   4.152   4.475   4.096  0.4923  0.2835 -0.1622
   13DOPC   H7R 1714   4.066   4.502   4.032  0.2000 -0.8726 -0.2705
   13DOPC   H7S 1715   4.138   4.373   4.136 -1.3563  1.3640  2.1891
   13DOPC   C28 1716   4.279   4.486   4.014 -0.2608  0.3423 -0.1754
   13DOPC   H8R 1717   4.362   4.448   4.077 -0.8589  0.0213  0.4280
   13DOPC   H8S 1718   4.289   4.597   4.013  1.1707  0.3125  2.2010
   13DOPC   C29 1719   4.279   4.413   3.884 -1.0519 -1.0115 -0.1428
   13DOPC   H9R 1720   4.332   4.317   3.889 -0.9805 -1.1735 -2.7856
   13DOPC  C210 1721   4.239   4.466   3.763 -0.0393  0.1032 -0.0329
   13DOPC  H10R 1722   4.252   4.401   3.675 -0.6755  2.4440 -1.9663
   13DOPC  C211 1723   4.170   4.600   3.741 -0.0266  0.4182 -0.3175
   13DOPC  H11R 1724   4.131   4.635   3.839  2.7055  0.3220  0.9091
   13DOPC  H11S 1725   4.092   4.588   3.663 -0.9328  2.6940  0.1491
   13DOPC  C212 1726   4.256   4.715   3.672 -0.1921  0.0562  0.2166
   13DOPC  H12R 1727   4.301   4.669   3.581  0.8004  1.4434 -0.0125
   13DOPC  H12S 1728   4.333   4.759   3.739  0.0152  1.7149 -1.0462
   13DOPC  C213 1729   4.168   4.834   3.618  0.0288 -0.0471  0.0468
   13DOPC  H13R 1730   4.084   4.801   3.554 -1.7572  2.0921  1.1400
   13DOPC  H13S 1731   4.240   4.906   3.574  0.9475 -1.1931 -0.3775
   13DOPC  C214 1732   4.103   4.908   3.736  0.2693 -0.1569  0.2522
   13DOPC  H14R 1733   4.176   4.928   3.818 -0.2039  2.8070  0.0249
   13DOPC  H14S 1734   4.020   4.846   3.777  2.2168 -2.8881  0.4324
   13DOPC  C215 1735   4.026   5.041   3.706 -0.1012  0.0887  0.1152
   13DOPC  H15R 1736   4.098   5.126   3.711 -1.6043  1.3973  0.2832
   13DOPC  H15S 1737   3.953   5.067   3.785  0.7273  1.0924  0.5761
   13DOPC  C216 1738   3.943   5.049   3.572 -0.4731  0.4416 -0.1889
   13DOPC  H16R 1739   3.852   4.986   3.584  1.4033 -2.5805 -0.6164
   13DOPC  H16S 1740   4.009   5.019   3.488  0.6923 -1.0225  1.1649
   13DOPC  C217 1741   3.892   5.195   3.552  0.2235 -0.0549 -0.4517
   13DOPC  H17R 1742   3.979   5.256   3.520  0.0603  1.9949  2.5462
   13DOPC  H17S 1743   3.853   5.229   3.651  2.8467  1.8909  0.0308
   13DOPC  C218 1744   3.783   5.216   3.454 -0.0437  0.2211 -0.2633
   13DOPC  H18R 1745   3.763   5.324   3.435 -0.6972  0.3470  1.0377
   13DOPC  H18S 1746   3.694   5.155   3.477 -0.4663  1.2072  0.8523
   13DOPC  H18T 1747   3.814   5.177   3.354 -0.5634 -0.7730 -0.0404
   13DOPC   C33 1748   4.561   4.254   4.475  0.2405  1.2391  0.3242
   13DOPC   H3X 1749   4.597   4.149   4.483 -2.3597  0.1379 -1.1963
   13DOPC   H3Y 1750   4.648   4.319   4.451  1.5122 -0.3560  0.4124
   13DOPC   C34 1751   4.470   4.267   4.351 -0.1050 -0.3522 -0.2822
   13DOPC   H4X 1752   4.458   4.377   4.340 -0.4410 -0.4799 -1.2754
   13DOPC   H4Y 1753   4.370   4.218   4.363  0.3913 -1.3238  0.0235
   13DOPC   C35 1754   4.546   4.218   4.222 -0.1699  0.5724  0.0739
   13DOPC   H5X 1755   4.655   4.241   4.227  0.0021 -0.0751 -0.5785
   13DOPC   H5Y 1756   4.505   4.273   4.135  1.1685 -2.3717 -2.6293
   13DOPC   C36 1757   4.551   4.067   4.206  0.4452  0.0890  0.2121
   13DOPC   H6X 1758   4.585   4.025   4.303  2.0131  0.9377  0.0727
   13DOPC   H6Y 1759   4.453   4.022   4.182  0.9860 -0.9391 -0.1138
   13DOPC   C37 1760   4.643   4.027   4.088  0.0592 -0.0647 -0.8519
   13DOPC   H7X 1761   4.600   4.065   3.993 -2.5725 -1.7507 -0.4287
   13DOPC   H7Y 1762   4.745   4.067   4.107  0.6244 -1.2362 -1.3084
   13DOPC   C38 1763   4.662   3.877   4.057  0.2906 -0.1007  0.2302
   13DOPC   H8X 1764   4.565   3.841   4.017  0.0859  0.8124 -0.1116
   13DOPC   H8Y 1765   4.684   3.821   4.150 -0.6590 -1.3450 -0.2704
   13DOPC   C39 1766   4.770   3.853   3.955  0.0067 -0.0271 -0.2770
   13DOPC   H9X 1767   4.833   3.940   3.931  1.4114 -0.6956  0.7936
   13DOPC  C310 1768   4.787   3.735   3.899  0.5613  0.0436 -0.2299
   13DOPC  H10X 1769   4.865   3.732   3.821  0.0651 -0.1447 -0.7316
   13DOPC  C311 1770   4.718   3.608   3.933  0.6351  0.0332 -0.2481
   13DOPC  H11X 1771   4.626   3.623   3.993  0.0254  1.2720 -1.4262
   13DOPC  H11Y 1772   4.793   3.553   3.995 -0.8454 -0.4860  1.1484
   13DOPC  C312 1773   4.667   3.524   3.812 -0.7141  0.0556 -0.3394
   13DOPC  H12X 1774   4.656   3.415   3.835  0.2329  0.1646  0.6857
   13DOPC  H12Y 1775   4.740   3.518   3.728 -1.2889  0.9665 -0.9123
   13DOPC  C313 1776   4.531   3.569   3.762  0.4445 -0.5181 -0.2872
   13DOPC  H13X 1777   4.445   3.553   3.830  1.6703  2.9945  2.3719
   13DOPC  H13Y 1778   4.527   3.679   3.745  0.1586 -0.5706 -0.5696
   13DOPC  C314 1779   4.506   3.513   3.626  0.0564 -0.1222 -0.0104
   13DOPC  H14X 1780   4.598   3.525   3.565 -0.0995 -1.9386 -0.6464
   13DOPC  H14Y 1781   4.472   3.408   3.631  0.8989 -0.4021  0.0157
   13DOPC  C315 1782   4.405   3.599   3.553  0.3057  0.3104  0.3990
   13DOPC  H15X 1783   4.454   3.695   3.525  2.2257 -0.8137 -0.2560
   13DOPC  H15Y 1784   4.318   3.635   3.612 -2.7036 -1.7398 -2.4010
   13DOPC  C316 1785   4.351   3.536   3.423 -0.0577 -0.5707  0.0014
   13DOPC  H16X 1786   4.275   3.462   3.455  0.2326  0.0718  2.4547
   13DOPC  H16Y 1787   4.287   3.609   3.370 -2.2845  0.1115  3.2941
   13DOPC  C317 1788   4.468   3.473   3.339  0.0075  1.1112 -0.4307
   13DOPC  H17X 1789   4.520   3.395   3.399  2.4386  1.9402 -1.3480
   13DOPC  H17Y 1790   4.419   3.428   3.250 -1.1170  1.1933  0.1296
   13DOPC  C318 1791   4.575   3.576   3.296  0.3576 -0.2285  0.1017
   13DOPC  H18X 1792   4.616   3.639   3.378  0.0702  0.0644  0.0210
   13DOPC  H18Y 1793   4.661   3.532   3.240  1.0426  0.1181  0.8594
   13DOPC  H18Z 1794   4.520   3.652   3.236  1.4186 -0.3547 -1.0655
   14DOPC     N 1795   7.598   7.723   5.343  0.2991 -0.0007 -0.3258
   14DOPC   C12 1796   7.623   7.575   5.365 -0.0066 -0.7928  0.2063
   14DOPC  H12A 1797   7.542   7.523   5.317  0.0470 -2.1584  1.5479
   14DOPC  H12B 1798   7.616   7.531   5.463  1.6255 -0.3682  0.5485
   14DOPC   C13 1799   7.701   7.812   5.400 -0.3811  0.5699 -0.1907
   14DOPC  H13A 1800   7.673   7.916   5.387 -1.5814  0.4024  0.9132
   14DOPC  H13B 1801   7.695   7.812   5.508 -0.8821  0.5509 -0.2194
   14DOPC  H13C 1802   7.798   7.787   5.358  0.7765  0.8662  2.1149
   14DOPC   C14 1803   7.473   7.758   5.415 -0.1048  0.1020 -0.2201
   14DOPC  H14A 1804   7.437   7.858   5.401 -2.1135 -0.3143  1.5524
   14DOPC  H14B 1805   7.397   7.693   5.376 -0.3073 -0.0196  0.3736
   14DOPC  H14C 1806   7.476   7.746   5.522 -1.1219  3.1806  0.2582
   14DOPC   C15 1807   7.590   7.758   5.196  0.5868 -0.3495 -0.3283
   14DOPC  H15A 1808   7.519   7.695   5.144 -1.6038  2.7631 -1.3732
   14DOPC  H15B 1809   7.685   7.776   5.148  0.6211  1.6551  0.4101
   14DOPC  H15C 1810   7.550   7.857   5.184 -0.7747 -0.1245  4.2818
   14DOPC   C11 1811   7.759   7.517   5.309 -0.5369 -0.0775  0.8492
   14DOPC  H11A 1812   7.765   7.407   5.302  1.3231 -0.0056  0.8483
   14DOPC  H11B 1813   7.778   7.560   5.208 -0.7805 -0.0221  0.8270
   14DOPC     P 1814   8.015   7.586   5.341 -0.1305  0.2862  0.5253
   14DOPC   O13 1815   8.113   7.549   5.443 -0.2526 -0.0865 -0.1978
   14DOPC   O14 1816   8.022   7.726   5.290  0.0019  0.3745 -1.0443
   14DOPC   O12 1817   7.869   7.557   5.398 -1.1013 -0.1615  0.0011
   14DOPC   O11 1818   8.025   7.492   5.214  0.1733  0.0017 -0.3687
   14DOPC    C1 1819   8.114   7.525   5.108 -0.0437 -0.6205  0.0421
   14DOPC    HA 1820   8.184   7.445   5.075  2.3895  1.9631 -1.4604
   14DOPC    HB 1821   8.193   7.597   5.138  3.4483 -3.1949 -2.2080
   14DOPC    C2 1822   8.033   7.573   4.981 -0.4325 -0.2506  0.1287
   14DOPC    HS 1823   8.013   7.681   4.997  0.1758  0.2301 -1.9760
   14DOPC   O21 1824   7.908   7.503   4.966  0.3246  0.0125  0.2087
   14DOPC   C21 1825   7.798   7.558   4.916  0.7769 -0.6808 -0.3679
   14DOPC   O22 1826   7.785   7.675   4.888  0.0359  0.0564 -0.0076
   14DOPC   C22 1827   7.685   7.452   4.907  0.1791 -0.5688 -0.2543
   14DOPC   H2R 1828   7.599   7.496   4.962 -0.5601 -0.3667 -1.5365
   14DOPC   H2S 1829   7.734   7.361   4.946  3.4147  1.6087  1.2078
   14DOPC    C3 1830   8.129   7.571   4.860 -1.2307  0.6149 -0.1050
   14DOPC    HX 1831   8.158   7.464   4.848  1.6449  1.1567  1.1544
   14DOPC    HY 1832   8.226   7.620   4.881 -2.3689  1.8327  2.8154
   14DOPC   O31 1833   8.060   7.626   4.746  0.0908  0.6625  0.1041
   14DOPC   C31 1834   8.043   7.760   4.742 -0.1945  0.3463 -0.0531
   14DOPC   O32 1835   8.091   7.840   4.820  0.2486  0.3233  0.4630
   14DOPC   C32 1836   7.969   7.796   4.610 -0.0322  0.4955 -0.4483
   14DOPC   H2X 1837   7.998   7.715   4.540  1.7987 -0.3154  1.1397
   14DOPC   H2Y 1838   7.860   7.789   4.631 -0.0159 -1.5096 -0.8124
   14DOPC   C23 1839   7.646   7.434   4.757  0.6542  0.0128  0.8483
   14DOPC   H3R 1840   7.584   7.342   4.753 -0.6839  0.9490 -1.2213
   14DOPC   H3S 1841   7.735   7.400   4.700  0.2421 -0.5545  0.5274
   14DOPC   C24 1842   7.588   7.553   4.686  0.5120 -0.0261  0.0402
   14DOPC   H4R 1843   7.658   7.640   4.682  0.1569  0.2341 -0.8095
   14DOPC   H4S 1844   7.496   7.579   4.743 -1.1865 -3.8863 -0.6265
   14DOPC   C25 1845   7.560   7.513   4.537 -0.0522 -0.5423  0.1344
   14DOPC   H5R 1846   7.522   7.602   4.481  1.4462 -0.5637 -0.9872
   14DOPC   H5S 1847   7.477   7.440   4.529 -1.3749  0.8003  0.9932
   14DOPC   C26 1848   7.679   7.477   4.453 -0.4838 -0.5539  0.2826
   14DOPC   H6R 1849   7.719   7.382   4.494  0.0665 -0.4244  0.0524
   14DOPC   H6S 1850   7.761   7.551   4.451 -0.4526 -0.5759  0.6458
   14DOPC   C27 1851   7.658   7.457   4.300 -0.4758 -0.2353  0.3429
   14DOPC   H7R 1852   7.636   7.559   4.262 -0.7652 -0.2716  0.4153
   14DOPC   H7S 1853   7.565   7.398   4.288 -1.1566  1.2310 -2.4017
   14DOPC   C28 1854   7.778   7.404   4.224 -0.5261 -0.2329  0.9105
   14DOPC   H8R 1855   7.836   7.347   4.300  0.7546  0.0035  0.1494
   14DOPC   H8S 1856   7.841   7.487   4.185 -1.6840  0.7613  1.0895
   14DOPC   C29 1857   7.743   7.304   4.110  0.4386  0.2281 -0.3825
   14DOPC   H9R 1858   7.635   7.292   4.098  0.3615  0.0994  0.4039
   14DOPC  C210 1859   7.832   7.235   4.038  0.1752  0.4361  0.5454
   14DOPC  H10R 1860   7.797   7.180   3.949  0.3193  1.5067 -0.1859
   14DOPC  C211 1861   7.981   7.239   4.042 -0.4529 -0.5858 -0.2212
   14DOPC  H11R 1862   8.021   7.140   4.075  2.9047  0.5209 -0.5725
   14DOPC  H11S 1863   8.005   7.315   4.119 -1.1114 -1.5053  0.9231
   14DOPC  C212 1864   8.064   7.268   3.911 -0.6026  0.4980 -0.6687
   14DOPC  H12R 1865   8.036   7.194   3.832  2.0023 -1.4507  0.0947
   14DOPC  H12S 1866   8.165   7.228   3.934 -2.0222 -2.1654  1.4719
   14DOPC  C213 1867   8.063   7.421   3.870 -0.7038 -0.1685  0.3524
   14DOPC  H13R 1868   8.087   7.479   3.962 -1.0257  0.6908 -0.0912
   14DOPC  H13S 1869   7.963   7.447   3.828  0.0718  0.0664 -1.4142
   14DOPC  C214 1870   8.175   7.457   3.765  0.2501 -0.0082  0.1604
   14DOPC  H14R 1871   8.150   7.553   3.716  1.1175  0.5971  0.8719
   14DOPC  H14S 1872   8.163   7.383   3.683  1.7494 -0.7571  0.5816
   14DOPC  C215 1873   8.321   7.454   3.813  0.3247 -0.1398  0.2887
   14DOPC  H15R 1874   8.334   7.380   3.894  2.9319  1.2969  1.2895
   14DOPC  H15S 1875   8.353   7.551   3.854  3.8599 -0.1913 -1.9283
   14DOPC  C216 1876   8.420   7.412   3.700 -0.4673  0.1848  0.2100
   14DOPC  H16R 1877   8.411   7.489   3.621  3.6592  1.7868  1.0351
   14DOPC  H16S 1878   8.402   7.307   3.668  1.1947 -0.3832  0.9901
   14DOPC  C217 1879   0.031   7.405   3.764  0.4821 -0.5979  0.1030
   14DOPC  H17R 1880   0.100   7.384   3.680 -1.0365  0.7467 -1.5565
   14DOPC  H17S 1881   0.022   7.318   3.833 -1.3395 -0.6759 -0.1695
   14DOPC  C218 1882   0.092   7.529   3.820  0.5796  0.2137  0.5772
   14DOPC  H18R 1883   0.198   7.517   3.852  0.7135 -1.2890 -0.3538
   14DOPC  H18S 1884   0.029   7.562   3.905  1.6732  0.6312  1.2535
   14DOPC  H18T 1885   0.077   7.614   3.750 -1.1904  1.0808  1.9407
   14DOPC   C33 1886   8.017   7.936   4.551 -0.1640  0.4972 -0.2724
   14DOPC   H3X 1887   8.016   8.019   4.625 -0.0690  0.8878 -0.7023
   14DOPC   H3Y 1888   7.940   7.966   4.476  0.2737 -3.2274 -2.4413
   14DOPC   C34 1889   8.152   7.919   4.477  0.0769  0.3372  0.3476
   14DOPC   H4X 1890   8.161   7.813   4.447 -4.2037  0.1088 -0.6390
   14DOPC   H4Y 1891   8.228   7.929   4.558 -2.1061 -0.4009  2.6102
   14DOPC   C35 1892   8.170   8.022   4.364  0.1385  0.6380 -0.5047
   14DOPC   H5X 1893   8.162   8.123   4.409  1.3080 -0.1258  1.5565
   14DOPC   H5Y 1894   8.084   8.012   4.294 -0.9695 -0.2375  0.9350
   14DOPC   C36 1895   8.286   7.996   4.273 -0.4740  0.2864 -0.0162
   14DOPC   H6X 1896   8.375   7.991   4.340 -0.6122 -0.7730  0.1083
   14DOPC   H6Y 1897   8.280   7.893   4.233 -1.2647  0.3558 -0.0881
   14DOPC   C37 1898   8.306   8.091   4.161  0.3982 -0.1286  0.4613
   14DOPC   H7X 1899   8.306   8.194   4.203 -0.1803  0.6863 -1.4131
   14DOPC   H7Y 1900   8.405   8.074   4.113  0.5051  1.2919  0.1465
   14DOPC   C38 1901   8.199   8.077   4.052 -0.2729  0.0705 -1.1552
   14DOPC   H8X 1902   8.113   8.117   4.111 -0.9062 -2.9962  0.2478
   14DOPC   H8Y 1903   8.172   7.971   4.032  0.1253 -0.5760  1.3522
   14DOPC   C39 1904   8.233   8.172   3.941  0.0395 -0.0158  0.2330
   14DOPC   H9X 1905   8.183   8.269   3.955 -0.1635 -0.4682  3.1577
   14DOPC  C310 1906   8.312   8.145   3.840  0.1431 -1.0070  0.2880
   14DOPC  H10X 1907   8.330   8.223   3.764 -0.8534 -1.6224 -0.5895
   14DOPC  C311 1908   8.399   8.022   3.833 -0.1312 -0.4327  0.6562
   14DOPC  H11X 1909   8.441   7.977   3.925  0.7819  1.4783  1.2226
   14DOPC  H11Y 1910   8.491   8.054   3.781 -0.6482  1.8890  1.0886
   14DOPC  C312 1911   8.337   7.912   3.754  0.0268  0.5055  0.3398
   14DOPC  H12X 1912   8.235   7.886   3.788  0.0865 -0.3269 -0.0919
   14DOPC  H12Y 1913   8.403   7.823   3.759 -0.5451 -0.1836 -2.5841
   14DOPC  C313 1914   8.328   7.955   3.602 -0.8583  0.8011 -0.5510
   14DOPC  H13X 1915   8.277   8.053   3.592  0.0517  1.4103  0.5494
   14DOPC  H13Y 1916   8.429   7.963   3.557  0.0105  1.9089  1.4529
   14DOPC  C314 1917   8.251   7.851   3.523 -0.0317  0.2032  0.3236
   14DOPC  H14X 1918   8.321   7.765   3.517  2.0823  1.8720 -0.0658
   14DOPC  H14Y 1919   8.159   7.808   3.569  0.6574 -0.2440  1.3434
   14DOPC  C315 1920   8.193   7.901   3.390 -0.2722  0.2543  0.2946
   14DOPC  H15X 1921   8.130   7.826   3.338  2.3417 -0.2404 -2.4792
   14DOPC  H15Y 1922   8.279   7.928   3.324 -0.7268  2.3244  0.4586
   14DOPC  C316 1923   8.096   8.028   3.403 -0.1047  0.3173  0.2021
   14DOPC  H16X 1924   8.063   8.037   3.509  0.3037  0.3649  0.3301
   14DOPC  H16Y 1925   8.147   8.122   3.372  1.1007 -0.7131 -1.1137
   14DOPC  C317 1926   7.972   8.016   3.315 -0.3526 -0.0485 -0.4302
   14DOPC  H17X 1927   7.928   7.914   3.312 -0.4119 -0.0213 -3.5367
   14DOPC  H17Y 1928   7.888   8.078   3.352 -0.2602 -0.0613 -0.1988
   14DOPC  C318 1929   8.006   8.045   3.165  0.0054 -1.1414  0.1590
   14DOPC  H18X 1930   8.048   8.148   3.163 -1.6701 -0.3617 -3.3028
   14DOPC  H18Y 1931   8.087   7.975   3.134 -2.1312 -2.8354 -1.9434
   14DOPC  H18Z 1932   7.922   8.022   3.097 -1.7771 -0.4327  2.0300
   15DOPC     N 1933   5.979   5.999   5.491 -0.5372  0.9359 -0.1077
   15DOPC   C12 1934   5.916   5.988   5.349 -0.0873 -0.2099  0.1524
   15DOPC  H12A 1935   5.896   5.883   5.332 -0.6048  0.1830 -1.8384
   15DOPC  H12B 1936   5.985   6.022   5.274  0.0294  1.0846  0.8046
   15DOPC   C13 1937   5.880   5.955   5.600 -0.2331 -0.0833  0.6924
   15DOPC  H13A 1938   5.889   6.005   5.695 -3.3458  2.0184  0.0445
   15DOPC  H13B 1939   5.786   5.999   5.571  0.7612  0.3822 -2.1117
   15DOPC  H13C 1940   5.861   5.849   5.606 -1.5929  0.1689  1.2795
   15DOPC   C14 1941   6.019   6.142   5.515 -0.2272  0.7573 -0.0409
   15DOPC  H14A 1942   6.097   6.183   5.453 -0.5674  0.0967 -0.9159
   15DOPC  H14B 1943   5.933   6.206   5.500 -0.5027  0.1910 -0.9375
   15DOPC  H14C 1944   6.055   6.156   5.616  0.7730 -1.1367 -0.0856
   15DOPC   C15 1945   6.097   5.905   5.506 -0.9529  0.1136 -0.2507
   15DOPC  H15A 1946   6.156   5.915   5.596 -0.2418  0.3425 -0.7256
   15DOPC  H15B 1947   6.169   5.923   5.427 -1.5428  0.2387 -0.7691
   15DOPC  H15C 1948   6.047   5.810   5.513 -1.1491  0.2907  1.0476
   15DOPC   C11 1949   5.776   6.058   5.324  0.3721  0.5219 -0.2710
   15DOPC  H11A 1950   5.737   6.031   5.224  1.2753 -0.5656 -0.3517
   15DOPC  H11B 1951   5.701   6.016   5.396  0.4423 -2.1575 -1.6215
   15DOPC     P 1952   5.672   6.290   5.379  0.1774  0.0258  0.2888
   15DOPC   O13 1953   5.701   6.433   5.385  0.3824  0.2699  0.2928
   15DOPC   O14 1954   5.613   6.228   5.501 -0.1793 -0.3436  0.3578
   15DOPC   O12 1955   5.796   6.201   5.328 -0.1301 -0.0601  0.0409
   15DOPC   O11 1956   5.570   6.272   5.264 -0.3257 -0.2233  0.2785
   15DOPC    C1 1957   5.606   6.268   5.129  0.2746  0.0663 -0.1831
   15DOPC    HA 1958   5.522   6.218   5.076 -0.7322  0.7742  0.7181
   15DOPC    HB 1959   5.702   6.214   5.109  1.0379  0.3568  2.4084
   15DOPC    C2 1960   5.607   6.416   5.079  0.1482 -0.1913 -0.6183
   15DOPC    HS 1961   5.569   6.473   5.167  1.0965 -1.0904  0.3999
   15DOPC   O21 1962   5.521   6.431   4.961  0.3814  0.1062  0.3801
   15DOPC   C21 1963   5.459   6.546   4.953 -0.5114 -0.6325  0.6785
   15DOPC   O22 1964   5.479   6.642   5.026  0.0646  0.1725  0.0354
   15DOPC   C22 1965   5.355   6.546   4.841 -0.0318 -0.1848  0.3366
   15DOPC   H2R 1966   5.287   6.633   4.859 -1.8343 -0.6400 -3.3455
   15DOPC   H2S 1967   5.303   6.449   4.857  0.4405 -0.8516 -1.8553
   15DOPC    C3 1968   5.745   6.480   5.043  0.0093  0.3770 -0.0236
   15DOPC    HX 1969   5.812   6.447   5.126 -1.0640  0.3456  0.8495
   15DOPC    HY 1970   5.727   6.589   5.044 -0.2238  0.5164 -4.0022
   15DOPC   O31 1971   5.793   6.441   4.912 -0.3463 -0.2741 -0.3541
   15DOPC   C31 1972   5.907   6.501   4.871  0.0755 -0.0683 -0.7353
   15DOPC   O32 1973   5.981   6.571   4.939  0.1704 -0.0213  0.6099
   15DOPC   C32 1974   5.943   6.473   4.730  0.1586  0.7528  0.2376
   15DOPC   H2X 1975   5.987   6.371   4.730  1.5434  1.2562  2.9863
   15DOPC   H2Y 1976   5.852   6.479   4.668 -0.8100 -0.8105  1.4265
   15DOPC   C23 1977   5.438   6.543   4.709  0.0496 -0.0606  0.4217
   15DOPC   H3R 1978   5.368   6.516   4.627 -1.1359  0.6347  1.1727
   15DOPC   H3S 1979   5.513   6.461   4.711 -0.8720 -0.9312  0.0452
   15DOPC   C24 1980   5.505   6.682   4.684 -0.0725  0.0835 -0.2871
   15DOPC   H4R 1981   5.576   6.698   4.767 -1.6839  2.4040  0.7421
   15DOPC   H4S 1982   5.426   6.758   4.702 -0.5840 -0.8880  1.9375
   15DOPC   C25 1983   5.586   6.700   4.558  0.4172 -0.0520 -0.0068
   15DOPC   H5R 1984   5.529   6.683   4.464  1.8100  0.3297 -0.9669
   15DOPC   H5S 1985   5.658   6.615   4.563 -0.9998 -1.2398  0.9350
   15DOPC   C26 1986   5.664   6.831   4.554  0.0917 -0.6592  0.7865
   15DOPC   H6R 1987   5.710   6.856   4.652 -0.0905  0.0565  0.6958
   15DOPC   H6S 1988   5.590   6.909   4.526 -0.1097 -1.6915 -1.8424
   15DOPC   C27 1989   5.772   6.842   4.443  0.3087  0.5115  0.5038
   15DOPC   H7R 1990   5.728   6.803   4.348  0.7297  1.8984 -0.2783
   15DOPC   H7S 1991   5.859   6.788   4.486 -1.0165 -0.7973  1.6873
   15DOPC   C28 1992   5.831   6.984   4.427 -0.3026  0.0004 -0.4946
   15DOPC   H8R 1993   5.922   6.974   4.365  0.7097  0.6355  0.8163
   15DOPC   H8S 1994   5.873   7.023   4.523  1.5563  3.3655 -2.4732
   15DOPC   C29 1995   5.738   7.090   4.380  0.3098 -0.7536  0.5164
   15DOPC   H9R 1996   5.632   7.061   4.374  0.2042 -0.3795  0.5240
   15DOPC  C210 1997   5.781   7.219   4.339  0.2428  0.6235  0.8334
   15DOPC  H10R 1998   5.709   7.288   4.293 -0.0260 -0.1160  0.1105
   15DOPC  C211 1999   5.932   7.270   4.350 -0.0379 -0.3157 -0.5880
   15DOPC  H11R 2000   5.988   7.202   4.418 -1.4853  1.6582  2.8072
   15DOPC  H11S 2001   5.941   7.374   4.387  1.1146 -0.9234  0.9436
   15DOPC  C212 2002   5.989   7.273   4.210 -0.0495 -0.2413 -0.2503
   15DOPC  H12R 2003   5.994   7.170   4.171  2.8141 -1.1822  2.1929
   15DOPC  H12S 2004   6.097   7.301   4.216  0.0345 -0.7465  0.9759
   15DOPC  C213 2005   5.923   7.358   4.100 -0.0619 -0.2377 -0.1914
   15DOPC  H13R 2006   5.874   7.448   4.145 -0.2980 -0.5793  0.2407
   15DOPC  H13S 2007   5.837   7.310   4.050 -2.7336  2.9555  0.9829
   15DOPC  C214 2008   6.016   7.407   3.997  0.4243 -0.9306 -0.5739
   15DOPC  H14R 2009   6.027   7.325   3.922  3.6830  0.1757 -1.4777
   15DOPC  H14S 2010   6.121   7.418   4.031 -0.0207 -1.5662  1.0844
   15DOPC  C215 2011   5.969   7.533   3.916  0.7067  0.6964 -0.0381
   15DOPC  H15R 2012   5.966   7.630   3.969  3.4307  0.7074  0.2558
   15DOPC  H15S 2013   5.868   7.511   3.877  0.6036 -0.7297  0.9289
   15DOPC  C216 2014   6.069   7.559   3.800  0.0386 -0.3253 -0.4107
   15DOPC  H16R 2015   6.105   7.463   3.756 -0.8466 -2.7456  3.6256
   15DOPC  H16S 2016   6.160   7.598   3.850 -1.4687  1.4949  1.0633
   15DOPC  C217 2017   6.007   7.655   3.700  0.1095  0.4118  0.7361
   15DOPC  H17R 2018   5.987   7.758   3.735 -1.8317 -0.2360  1.7066
   15DOPC  H17S 2019   5.914   7.612   3.657 -0.1697  2.5365 -0.9208
   15DOPC  C218 2020   6.086   7.667   3.569 -0.0203 -0.1487 -0.0484
   15DOPC  H18R 2021   6.191   7.690   3.597  0.3774 -1.6869 -0.2437
   15DOPC  H18S 2022   6.033   7.748   3.514 -2.0388  0.2607  2.2797
   15DOPC  H18T 2023   6.073   7.571   3.515 -1.3581 -0.6977  1.1672
   15DOPC   C33 2024   6.046   6.577   4.670 -0.1860  1.2546  0.0224
   15DOPC   H3X 2025   6.125   6.603   4.743  0.6078  1.8903 -1.0369
   15DOPC   H3Y 2026   5.991   6.673   4.655 -0.8992  0.6266 -1.6004
   15DOPC   C34 2027   6.130   6.535   4.550 -0.2222  0.1455  0.5020
   15DOPC   H4X 2028   6.161   6.429   4.564 -1.4229 -0.6514 -2.2009
   15DOPC   H4Y 2029   6.213   6.604   4.522 -0.7058  0.5068 -0.0686
   15DOPC   C35 2030   6.048   6.528   4.419  0.2114 -0.2383 -0.7839
   15DOPC   H5X 2031   5.944   6.561   4.441  0.3628  0.6061 -1.3164
   15DOPC   H5Y 2032   6.044   6.422   4.384 -1.8308 -0.2265 -0.7021
   15DOPC   C36 2033   6.101   6.602   4.299  0.0914  0.3733 -0.2675
   15DOPC   H6X 2034   6.129   6.705   4.332  2.3090 -0.1622 -0.3322
   15DOPC   H6Y 2035   6.194   6.558   4.260  0.2280 -1.0138  1.5245
   15DOPC   C37 2036   5.997   6.611   4.183 -0.5100 -0.1173 -0.2543
   15DOPC   H7X 2037   5.993   6.519   4.121 -1.5292  0.8874 -1.7456
   15DOPC   H7Y 2038   5.896   6.622   4.228 -1.7917 -1.6528 -2.5476
   15DOPC   C38 2039   6.027   6.738   4.096  0.2078  0.0177 -0.4272
   15DOPC   H8X 2040   6.136   6.730   4.076  0.4783  1.1762  0.4561
   15DOPC   H8Y 2041   6.020   6.835   4.150 -3.6127  1.4263 -3.0374
   15DOPC   C39 2042   5.942   6.738   3.970 -0.1474  0.4264 -0.3415
   15DOPC   H9X 2043   5.944   6.642   3.917  1.3615 -0.8801  1.9142
   15DOPC  C310 2044   5.878   6.841   3.911  0.9404  0.5031 -0.0973
   15DOPC  H10X 2045   5.839   6.819   3.810  0.3646  0.3730  0.1459
   15DOPC  C311 2046   5.858   6.976   3.982  0.3166  0.0053  0.3073
   15DOPC  H11X 2047   5.945   7.032   3.940  0.7131 -0.7763  0.0778
   15DOPC  H11Y 2048   5.875   6.960   4.090 -0.3314 -0.3488  0.3609
   15DOPC  C312 2049   5.724   7.053   3.959  0.2117 -0.1967 -0.0590
   15DOPC  H12X 2050   5.713   7.133   4.035  1.4286 -0.8950  0.9070
   15DOPC  H12Y 2051   5.634   6.989   3.973 -0.9595  1.2633 -0.6852
   15DOPC  C313 2052   5.702   7.124   3.827 -0.3733 -0.6956  0.3339
   15DOPC  H13X 2053   5.647   7.220   3.828  0.3677 -0.0981 -3.2592
   15DOPC  H13Y 2054   5.796   7.170   3.791 -0.8831  0.0594 -0.0498
   15DOPC  C314 2055   5.652   7.037   3.722  1.2493 -0.3912 -0.1327
   15DOPC  H14X 2056   5.738   6.987   3.672  2.9418  1.3030  0.9563
   15DOPC  H14Y 2057   5.570   6.968   3.746  0.1258  0.8035 -0.4169
   15DOPC  C315 2058   5.583   7.114   3.603  0.3078 -0.7087  0.2865
   15DOPC  H15X 2059   5.654   7.190   3.565 -1.7810  0.7462 -0.9216
   15DOPC  H15Y 2060   5.492   7.164   3.643 -0.6198 -1.5763 -0.6625
   15DOPC  C316 2061   5.541   7.025   3.478  0.3775  0.2900  0.3589
   15DOPC  H16X 2062   5.458   6.961   3.515 -0.4467  1.4718  0.5980
   15DOPC  H16Y 2063   5.511   7.090   3.393 -1.0501 -0.6239  0.1334
   15DOPC  C317 2064   5.647   6.927   3.421 -0.4840 -0.5351 -0.1572
   15DOPC  H17X 2065   5.737   6.988   3.397  1.2683 -2.5427  0.9761
   15DOPC  H17Y 2066   5.671   6.847   3.493 -1.9378 -0.2813  0.6406
   15DOPC  C318 2067   5.620   6.853   3.290  0.3169 -0.1917 -0.4375
   15DOPC  H18X 2068   5.618   6.929   3.209  0.9529  0.9701  0.6099
   15DOPC  H18Y 2069   5.707   6.791   3.258  1.9767  0.6073  2.2369
   15DOPC  H18Z 2070   5.532   6.787   3.306  0.4553 -0.1204  0.6766
   16DOPC     N 2071   0.370   5.447   5.169  0.0515 -0.5676  0.1304
   16DOPC   C12 2072   0.252   5.391   5.253 -0.1173 -0.1295  0.4038
   16DOPC  H12A 2073   0.275   5.413   5.356  1.6398  0.0503  0.0203
   16DOPC  H12B 2074   0.247   5.284   5.237  3.1642 -0.1302 -1.6274
   16DOPC   C13 2075   0.386   5.592   5.193 -0.6056 -0.3498  0.9144
   16DOPC  H13A 2076   0.407   5.611   5.298  0.0600 -0.3963  0.7905
   16DOPC  H13B 2077   0.464   5.643   5.138 -0.3552 -1.1876  0.4863
   16DOPC  H13C 2078   0.296   5.646   5.168 -1.1833 -1.4489  0.5471
   16DOPC   C14 2079   0.337   5.421   5.025  0.4284 -0.2989  0.4128
   16DOPC  H14A 2080   0.234   5.447   5.007 -0.2033 -2.3739  0.7094
   16DOPC  H14B 2081   0.409   5.471   4.962 -0.8085  0.8771 -0.0995
   16DOPC  H14C 2082   0.349   5.316   4.999 -0.1844 -0.3754  0.4253
   16DOPC   C15 2083   0.491   5.371   5.204  0.2566  0.6599 -0.1411
   16DOPC  H15A 2084   0.581   5.422   5.172  0.8056 -0.5038 -0.4920
   16DOPC  H15B 2085   0.490   5.270   5.165 -1.3370 -0.4152  2.4117
   16DOPC  H15C 2086   0.493   5.355   5.311 -0.9304 -2.3123 -0.4575
   16DOPC   C11 2087   0.109   5.447   5.218 -0.4013  0.4666 -0.3535
   16DOPC  H11A 2088   0.042   5.435   5.306  3.4486 -1.5236  2.5789
   16DOPC  H11B 2089   0.110   5.556   5.198 -0.2204  0.4083 -0.6687
   16DOPC     P 2090   0.012   5.234   5.123  0.1000 -0.1711 -0.8856
   16DOPC   O13 2091   8.422   5.235   5.205 -0.3761 -0.0412  0.0033
   16DOPC   O14 2092   0.120   5.149   5.174  0.8359 -0.1655  0.2099
   16DOPC   O12 2093   0.061   5.384   5.096  0.2526  1.1496 -0.0667
   16DOPC   O11 2094   8.502   5.174   4.979 -0.0637  0.4943 -0.3357
   16DOPC    C1 2095   0.003   5.248   4.863  0.5408  0.4186  0.1063
   16DOPC    HA 2096   0.080   5.328   4.868  1.0259  0.2430 -2.5941
   16DOPC    HB 2097   8.450   5.308   4.831 -0.7182 -1.1221  0.5756
   16DOPC    C2 2098   0.030   5.161   4.735  0.4087  0.5756 -0.6051
   16DOPC    HS 2099   0.113   5.096   4.770  2.1865  2.5198 -0.9529
   16DOPC   O21 2100   0.065   5.254   4.627 -0.3194  0.3921  0.9253
   16DOPC   C21 2101   0.200   5.257   4.604  0.9141 -0.5652 -0.0489
   16DOPC   O22 2102   0.283   5.204   4.674  0.3306 -0.1674 -0.1572
   16DOPC   C22 2103   0.232   5.350   4.490  0.0423  0.6258 -0.3485
   16DOPC   H2R 2104   0.244   5.454   4.528 -0.5026 -0.6109  3.7630
   16DOPC   H2S 2105   0.148   5.350   4.417  0.0688  2.3165 -0.4147
   16DOPC    C3 2106   8.436   5.078   4.698  0.2658 -0.0948 -0.0563
   16DOPC    HX 2107   8.359   5.158   4.687  0.5545  0.2656  0.4785
   16DOPC    HY 2108   8.406   5.004   4.775  1.7592 -1.7317 -0.9629
   16DOPC   O31 2109   8.464   5.009   4.571  0.2015  0.5997 -0.1364
   16DOPC   C31 2110   8.502   4.880   4.581 -0.1937  0.6448 -0.0007
   16DOPC   O32 2111   8.504   4.815   4.685 -0.9781 -1.2209  0.1020
   16DOPC   C32 2112   8.533   4.823   4.442  0.5857  0.1887  0.2454
   16DOPC   H2X 2113   0.026   4.716   4.458  1.9500  0.8578  2.7553
   16DOPC   H2Y 2114   8.439   4.828   4.383  0.2255 -3.3746  0.2589
   16DOPC   C23 2115   0.365   5.316   4.417  0.2591  0.7218 -0.0297
   16DOPC   H3R 2116   0.355   5.217   4.367 -0.3702  0.3333  0.8451
   16DOPC   H3S 2117   0.442   5.317   4.496  0.9392 -0.9179 -0.6235
   16DOPC   C24 2118   0.397   5.420   4.306  0.1999 -0.7919 -0.3069
   16DOPC   H4R 2119   0.428   5.513   4.357  0.8642 -0.1586 -1.7961
   16DOPC   H4S 2120   0.309   5.430   4.240 -0.4182 -1.4764  0.3970
   16DOPC   C25 2121   0.514   5.367   4.223  0.5048  0.1801 -0.3436
   16DOPC   H5R 2122   0.482   5.270   4.181 -0.2750  0.4414 -0.3600
   16DOPC   H5S 2123   0.597   5.341   4.292 -0.9915  1.4517  2.0834
   16DOPC   C26 2124   0.561   5.470   4.117 -0.8522  0.3369  0.0359
   16DOPC   H6R 2125   0.596   5.564   4.164  0.3936  1.5100 -2.9571
   16DOPC   H6S 2126   0.480   5.508   4.051 -0.3066  1.5424  0.0328
   16DOPC   C27 2127   0.683   5.420   4.037  0.4907  0.5546  0.2053
   16DOPC   H7R 2128   0.701   5.501   3.963  0.0487 -0.3683 -0.9489
   16DOPC   H7S 2129   0.665   5.327   3.978 -1.1870  0.8951  0.1256
   16DOPC   C28 2130   0.821   5.417   4.110  0.0334  0.0011  0.5433
   16DOPC   H8R 2131   0.814   5.342   4.192 -0.3880 -1.6129 -0.9128
   16DOPC   H8S 2132   0.820   5.508   4.174 -0.1071  1.2663 -1.2112
   16DOPC   C29 2133   0.944   5.427   4.023 -0.0082 -0.0183  0.5287
   16DOPC   H9R 2134   0.958   5.525   3.976  0.8688 -1.0191 -1.4154
   16DOPC  C210 2135   1.010   5.311   3.986 -0.0048 -0.1977  0.0950
   16DOPC  H10R 2136   1.099   5.323   3.923  0.9581  0.5998  1.5440
   16DOPC  C211 2137   0.977   5.170   4.034  0.0428 -0.6091  0.5406
   16DOPC  H11R 2138   0.883   5.163   4.092 -0.2732  1.1877  0.3089
   16DOPC  H11S 2139   1.063   5.129   4.090 -0.2840 -2.3972 -0.1816
   16DOPC  C212 2140   0.959   5.081   3.910  0.8854 -0.0136  0.2676
   16DOPC  H12R 2141   0.871   5.112   3.849  0.7868 -1.2383 -0.2514
   16DOPC  H12S 2142   0.934   4.984   3.958  1.7289  1.2306  3.4669
   16DOPC  C213 2143   1.078   5.050   3.817  0.1450  0.1340 -0.8978
   16DOPC  H13R 2144   1.114   5.154   3.803 -1.8890  1.1377  0.7477
   16DOPC  H13S 2145   1.046   4.989   3.730  1.2382 -1.0912 -0.4753
   16DOPC  C214 2146   1.174   4.959   3.890 -0.6233  0.6602  0.1918
   16DOPC  H14R 2147   1.141   4.853   3.891 -0.9368  0.7533  1.6135
   16DOPC  H14S 2148   1.181   4.985   3.998  1.1094 -0.4795  0.3875
   16DOPC  C215 2149   1.311   4.969   3.841 -0.4451  0.8418  0.7707
   16DOPC  H15R 2150   1.381   4.897   3.889  1.3970  1.3320 -1.0521
   16DOPC  H15S 2151   1.353   5.069   3.864  2.6166  0.4674 -2.4075
   16DOPC  C216 2152   1.332   4.938   3.689  0.0456  0.0028 -0.4786
   16DOPC  H16R 2153   1.280   5.022   3.638  0.1818 -0.2061 -0.9716
   16DOPC  H16S 2154   1.273   4.852   3.653 -1.8059  0.5341  1.1408
   16DOPC  C217 2155   1.479   4.928   3.650  0.1541 -0.4783 -0.2485
   16DOPC  H17R 2156   1.522   4.837   3.697  0.4689  0.3912  1.2116
   16DOPC  H17S 2157   1.541   5.012   3.687  1.4601 -0.5521 -2.1229
   16DOPC  C218 2158   1.508   4.922   3.499  0.6489 -0.6513  0.8038
   16DOPC  H18R 2159   1.617   4.919   3.479  0.6325 -0.4064  0.6755
   16DOPC  H18S 2160   1.469   5.015   3.451 -1.0987 -0.2733  2.8242
   16DOPC  H18T 2161   1.470   4.828   3.454  0.6877 -0.8629  1.2108
   16DOPC   C33 2162   0.107   4.903   4.367  0.5197 -0.6709  0.2563
   16DOPC   H3X 2163   0.093   5.013   4.375 -0.2210 -0.8536  2.0916
   16DOPC   H3Y 2164   0.203   4.889   4.422  0.2370 -0.0652  0.9119
   16DOPC   C34 2165   0.115   4.866   4.212  0.6923  0.8285 -0.4908
   16DOPC   H4X 2166   0.217   4.894   4.177 -0.2912  1.6500 -2.9253
   16DOPC   H4Y 2167   0.042   4.918   4.147 -1.0055 -3.4292 -2.4146
   16DOPC   C35 2168   0.086   4.711   4.180 -0.0319 -0.7144 -0.3531
   16DOPC   H5X 2169   8.522   4.679   4.219 -0.3154  0.4711 -0.0570
   16DOPC   H5Y 2170   0.157   4.646   4.235  0.1072  1.2825  1.9766
   16DOPC   C36 2171   0.089   4.689   4.027  0.9373 -0.1450  0.3234
   16DOPC   H6X 2172   0.013   4.746   3.970  1.1516  1.6709  1.7596
   16DOPC   H6Y 2173   0.181   4.745   4.000  0.0033  2.5543  2.2869
   16DOPC   C37 2174   0.090   4.539   3.993  0.7208 -0.4774  0.1185
   16DOPC   H7X 2175   0.173   4.481   4.039  0.6641 -0.6780 -0.0318
   16DOPC   H7Y 2176   8.531   4.487   4.024 -0.5435  1.1917 -0.8125
   16DOPC   C38 2177   0.093   4.499   3.843  0.5273 -0.4390  0.1632
   16DOPC   H8X 2178   0.020   4.567   3.794 -1.2045 -0.9303  1.9455
   16DOPC   H8Y 2179   0.058   4.395   3.830  1.2750 -0.3269 -4.7064
   16DOPC   C39 2180   0.228   4.514   3.782 -0.4622  0.2809 -0.6975
   16DOPC   H9X 2181   0.287   4.422   3.780 -0.2195  0.3483  1.2036
   16DOPC  C310 2182   0.276   4.625   3.718 -0.8703 -0.2695 -0.0279
   16DOPC  H10X 2183   0.384   4.617   3.696 -0.9597 -2.3727  0.1542
   16DOPC  C311 2184   0.202   4.756   3.694  0.1109  0.3623 -0.8331
   16DOPC  H11X 2185   0.256   4.837   3.748 -1.0779  0.3096  0.4869
   16DOPC  H11Y 2186   0.102   4.763   3.740 -0.4834  0.7503 -2.1197
   16DOPC  C312 2187   0.213   4.784   3.546 -0.3764  0.1282  0.4666
   16DOPC  H12X 2188   0.321   4.788   3.518 -0.1220  0.0585  1.3934
   16DOPC  H12Y 2189   0.166   4.884   3.531  0.4183  0.1927 -2.0606
   16DOPC  C313 2190   0.145   4.682   3.457  1.0220  1.0405 -0.1300
   16DOPC  H13X 2191   0.177   4.715   3.356  1.0403  2.2265  0.2472
   16DOPC  H13Y 2192   0.191   4.582   3.472 -1.6693 -0.0236  1.8317
   16DOPC  C314 2193   8.526   4.681   3.461 -0.9145  0.4983  0.0516
   16DOPC  H14X 2194   8.489   4.634   3.554 -2.2335 -0.5949 -0.9900
   16DOPC  H14Y 2195   8.492   4.787   3.468 -1.0520  0.6369 -2.0935
   16DOPC  C315 2196   8.471   4.601   3.341  1.1331  0.2074  0.5526
   16DOPC  H15X 2197   8.487   4.643   3.240 -0.3055 -2.2585 -0.8041
   16DOPC  H15Y 2198   8.360   4.595   3.350  1.0442  2.0825  1.0340
   16DOPC  C316 2199   8.516   4.454   3.349  0.3519  0.0475  0.3994
   16DOPC  H16X 2200   0.090   4.442   3.335  0.1464  0.8770 -2.4305
   16DOPC  H16Y 2201   8.498   4.406   3.448  0.6800  1.5375  1.2129
   16DOPC  C317 2202   8.447   4.377   3.232  0.1128  0.4041 -0.2340
   16DOPC  H17X 2203   8.339   4.395   3.249  0.8027  2.7871  2.3057
   16DOPC  H17Y 2204   8.479   4.428   3.139  0.6036  2.9449  1.2446
   16DOPC  C318 2205   8.473   4.226   3.235 -0.1400 -0.1765  0.0759
   16DOPC  H18X 2206   8.454   4.168   3.328 -1.6887 -2.1989 -1.3951
   16DOPC  H18Y 2207   8.400   4.184   3.163  0.4957 -1.4431  0.1391
   16DOPC  H18Z 2208   0.038   4.201   3.194  0.3961 -1.4134  1.9923
   17DOPC     N 2209   2.122   5.338   4.696 -0.4242 -0.1439  0.2288
   17DOPC   C12 2210   2.078   5.234   4.788  0.0721 -0.4420 -0.1661
   17DOPC  H12A 2211   2.045   5.146   4.735 -1.5407 -0.5589  0.9507
   17DOPC  H12B 2212   1.984   5.268   4.830  1.3360  0.4498  2.1628
   17DOPC   C13 2213   2.256   5.291   4.644  0.0202  0.9424 -0.3801
   17DOPC  H13A 2214   2.316   5.253   4.725 -0.0942 -0.1863 -0.8144
   17DOPC  H13B 2215   2.243   5.206   4.579 -1.3136  0.3475  0.6183
   17DOPC  H13C 2216   2.319   5.367   4.600  1.7087 -0.5370 -0.6098
   17DOPC   C14 2217   2.130   5.471   4.756 -0.2048 -0.6286 -0.1207
   17DOPC  H14A 2218   2.037   5.505   4.801 -0.0157 -0.6787  0.3190
   17DOPC  H14B 2219   2.206   5.473   4.834  1.6932 -0.5069 -1.8895
   17DOPC  H14C 2220   2.157   5.541   4.678  0.9483 -1.3089 -0.3610
   17DOPC   C15 2221   2.037   5.346   4.571  0.0541  0.6085  0.3799
   17DOPC  H15A 2222   2.068   5.421   4.499 -3.6299  1.0517 -0.9468
   17DOPC  H15B 2223   1.935   5.380   4.583 -0.8684 -0.2707 -3.5087
   17DOPC  H15C 2224   2.034   5.250   4.521 -2.0015  1.0457 -0.4508
   17DOPC   C11 2225   2.176   5.191   4.903 -0.0123 -0.0886  0.3298
   17DOPC  H11A 2226   2.216   5.281   4.953 -0.2520 -0.7142  1.7266
   17DOPC  H11B 2227   2.125   5.136   4.985  1.1550 -0.2187  0.9809
   17DOPC     P 2228   2.282   4.962   4.843  0.1158  0.4950  0.0252
   17DOPC   O13 2229   2.244   4.919   4.978 -0.2097 -0.8518  0.3280
   17DOPC   O14 2230   2.418   4.916   4.802  0.3931 -0.2797  0.6323
   17DOPC   O12 2231   2.280   5.114   4.845 -0.9475 -0.4468  0.0509
   17DOPC   O11 2232   2.176   4.921   4.728  0.2439  0.0255  0.1777
   17DOPC    C1 2233   2.248   4.903   4.605 -0.3089  0.5136  0.6119
   17DOPC    HA 2234   2.275   4.796   4.608 -1.6466  0.1556  0.8088
   17DOPC    HB 2235   2.337   4.967   4.591  0.5258 -0.6564  0.4400
   17DOPC    C2 2236   2.158   4.926   4.479 -0.5410 -0.1384 -1.3059
   17DOPC    HS 2237   2.145   5.037   4.474 -3.2832 -0.3375 -0.3270
   17DOPC   O21 2238   2.033   4.858   4.480 -0.9996  0.5027  0.1018
   17DOPC   C21 2239   1.932   4.925   4.517  0.8110 -0.5617 -0.3563
   17DOPC   O22 2240   1.937   5.035   4.572  0.6643  0.4170  0.0086
   17DOPC   C22 2241   1.796   4.851   4.484 -0.0736 -0.2060  0.5043
   17DOPC   H2R 2242   1.783   4.771   4.560  1.7252 -0.5789  0.4464
   17DOPC   H2S 2243   1.819   4.800   4.388  0.6887  3.2115 -1.3082
   17DOPC    C3 2244   2.236   4.886   4.356 -0.5159 -0.0260 -0.1521
   17DOPC    HX 2245   2.184   4.922   4.264 -0.1490  1.0600  0.0503
   17DOPC    HY 2246   2.233   4.775   4.357 -0.0134 -0.0487  1.7051
   17DOPC   O31 2247   2.376   4.929   4.351  0.2500 -0.0690 -0.2544
   17DOPC   C31 2248   2.406   5.054   4.337 -0.0352  0.4209 -0.4569
   17DOPC   O32 2249   2.322   5.145   4.335 -0.8351  0.1323 -0.0255
   17DOPC   C32 2250   2.554   5.073   4.326 -0.7344  0.3878 -0.1229
   17DOPC   H2X 2251   2.580   5.115   4.425 -1.6379 -2.2240  1.2951
   17DOPC   H2Y 2252   2.620   4.984   4.326  0.4116  1.2117 -0.4349
   17DOPC   C23 2253   1.680   4.956   4.475  0.4001  0.2333  0.3159
   17DOPC   H3R 2254   1.693   5.022   4.387 -2.7120  1.4853  0.6821
   17DOPC   H3S 2255   1.673   5.033   4.554  1.3350 -0.9748  1.6310
   17DOPC   C24 2256   1.542   4.885   4.463 -0.3262 -1.3189 -0.1465
   17DOPC   H4R 2257   1.464   4.951   4.508 -2.9693 -4.0935 -0.2731
   17DOPC   H4S 2258   1.544   4.792   4.524 -0.5694 -0.9329  0.4603
   17DOPC   C25 2259   1.493   4.861   4.320  0.6714 -0.0614 -0.5398
   17DOPC   H5R 2260   1.497   4.952   4.255 -0.3984 -0.6509 -1.4708
   17DOPC   H5S 2261   1.385   4.834   4.327  0.1294  1.8515 -0.8764
   17DOPC   C26 2262   1.561   4.754   4.239 -0.3366 -0.6209  0.4578
   17DOPC   H6R 2263   1.560   4.663   4.302 -0.6383  0.5949  2.2992
   17DOPC   H6S 2264   1.665   4.784   4.212 -0.5267 -0.1320  0.2485
   17DOPC   C27 2265   1.486   4.731   4.112  0.7353 -0.3204 -0.5480
   17DOPC   H7R 2266   1.475   4.827   4.056  2.5427  0.2704  0.0471
   17DOPC   H7S 2267   1.384   4.721   4.155  0.2007  0.0042 -1.7088
   17DOPC   C28 2268   1.519   4.608   4.022  0.1892  0.2143 -0.1533
   17DOPC   H8R 2269   1.500   4.516   4.080 -1.4946 -0.2527 -1.3661
   17DOPC   H8S 2270   1.624   4.600   3.984 -0.0059 -1.1906 -0.4571
   17DOPC   C29 2271   1.437   4.601   3.892 -0.4661  0.6695  0.1902
   17DOPC   H9R 2272   1.358   4.675   3.874 -1.6675 -0.8367 -1.0134
   17DOPC  C210 2273   1.466   4.522   3.792  0.1651  0.8314  0.1855
   17DOPC  H10R 2274   1.395   4.515   3.708  2.7962 -1.0777 -2.0657
   17DOPC  C211 2275   1.574   4.425   3.785  1.0557 -0.5700  0.6321
   17DOPC  H11R 2276   1.616   4.385   3.880 -0.4096 -0.2736  1.4336
   17DOPC  H11S 2277   1.661   4.475   3.736 -0.1542  1.5349  0.5410
   17DOPC  C212 2278   1.534   4.308   3.690 -0.1221  0.0116 -0.2237
   17DOPC  H12R 2279   1.502   4.341   3.589 -0.8658 -0.7585 -0.2485
   17DOPC  H12S 2280   1.443   4.252   3.721 -0.6349  0.0696 -1.5794
   17DOPC  C213 2281   1.649   4.208   3.658  0.1269 -0.7356 -0.5182
   17DOPC  H13R 2282   1.669   4.142   3.746  1.1616  0.0503 -0.1388
   17DOPC  H13S 2283   1.726   4.277   3.617 -2.1484  1.0759 -2.0151
   17DOPC  C214 2284   1.621   4.116   3.535 -0.2672 -0.4074  0.0247
   17DOPC  H14R 2285   1.702   4.051   3.494  0.2022 -0.1845  0.5768
   17DOPC  H14S 2286   1.596   4.189   3.456 -0.3054  0.7378  1.0628
   17DOPC  C215 2287   1.499   4.025   3.564  0.4219 -0.8480 -0.0822
   17DOPC  H15R 2288   1.404   4.083   3.561 -0.6829 -2.4608  1.4431
   17DOPC  H15S 2289   1.506   3.983   3.667 -0.2970  1.4957  1.0085
   17DOPC  C216 2290   1.487   3.914   3.465  0.3337 -0.0673 -0.2575
   17DOPC  H16R 2291   1.581   3.856   3.464  0.2354 -0.2285 -0.0752
   17DOPC  H16S 2292   1.468   3.952   3.362 -0.2502 -0.3781 -0.2674
   17DOPC  C217 2293   1.389   3.804   3.506 -0.3820  0.3413 -0.3085
   17DOPC  H17R 2294   1.413   3.776   3.611  0.1463  1.3895 -0.1377
   17DOPC  H17S 2295   1.411   3.713   3.447 -0.0480  0.7799 -0.8641
   17DOPC  C218 2296   1.244   3.834   3.497 -0.2791  0.3935 -0.4472
   17DOPC  H18R 2297   1.221   3.871   3.395  2.2280 -1.6730 -1.8982
   17DOPC  H18S 2298   1.218   3.919   3.564  1.4368  1.6527 -1.2811
   17DOPC  H18T 2299   1.183   3.746   3.524 -1.7746  0.5201 -3.0595
   17DOPC   C33 2300   2.603   5.166   4.210  0.3333  0.3951 -0.0756
   17DOPC   H3X 2301   2.542   5.259   4.207 -0.5378 -0.0881  1.4013
   17DOPC   H3Y 2302   2.585   5.111   4.115 -2.7299 -1.0555  1.2041
   17DOPC   C34 2303   2.751   5.190   4.211  0.4469 -0.3832  0.4839
   17DOPC   H4X 2304   2.799   5.092   4.232  1.8836  0.6143  2.1184
   17DOPC   H4Y 2305   2.776   5.263   4.291 -0.3382  3.0306 -2.1915
   17DOPC   C35 2306   2.803   5.257   4.087  0.2775  0.3442 -0.7371
   17DOPC   H5X 2307   2.905   5.295   4.113  0.5688  0.3387 -1.8013
   17DOPC   H5Y 2308   2.744   5.351   4.078 -2.3648 -1.1103  0.4471
   17DOPC   C36 2309   2.809   5.182   3.953  0.0093 -0.6010  0.0421
   17DOPC   H6X 2310   2.872   5.092   3.968 -0.2279 -0.7379  0.2164
   17DOPC   H6Y 2311   2.707   5.150   3.922 -0.2830  2.5166 -2.8679
   17DOPC   C37 2312   2.872   5.273   3.845  0.0581 -0.0681  0.4000
   17DOPC   H7X 2313   2.797   5.343   3.804  1.4967  1.8021  0.8110
   17DOPC   H7Y 2314   2.941   5.346   3.892  1.4414  0.6996 -2.6379
   17DOPC   C38 2315   2.937   5.199   3.723 -0.6316  0.2573 -1.0683
   17DOPC   H8X 2316   3.015   5.131   3.763  0.6173  2.0627 -0.3000
   17DOPC   H8Y 2317   2.992   5.280   3.670  2.5562  0.9313  2.8239
   17DOPC   C39 2318   2.828   5.122   3.636 -0.0948  0.2418 -0.1604
   17DOPC   H9X 2319   2.729   5.169   3.629 -0.2772 -0.2961 -1.4567
   17DOPC  C310 2320   2.850   5.008   3.572 -0.5621 -0.0964  0.2802
   17DOPC  H10X 2321   2.770   4.969   3.506 -0.5802  2.3824 -1.2737
   17DOPC  C311 2322   2.972   4.921   3.578 -0.6507 -0.6004  0.8107
   17DOPC  H11X 2323   3.068   4.971   3.604  0.5365 -1.7862 -1.0893
   17DOPC  H11Y 2324   2.996   4.877   3.479 -0.1704 -2.5213  1.7237
   17DOPC  C312 2325   2.957   4.788   3.660 -0.5522  0.1250  0.5075
   17DOPC  H12X 2326   2.985   4.699   3.600 -0.4892 -0.2573  1.0895
   17DOPC  H12Y 2327   2.851   4.769   3.687 -0.6091  1.0753  0.9971
   17DOPC  C313 2328   3.045   4.790   3.785 -0.0923  0.0427 -0.0066
   17DOPC  H13X 2329   3.148   4.760   3.757  0.1825  2.2656 -1.7135
   17DOPC  H13Y 2330   3.042   4.896   3.817 -0.0090  0.2443 -0.6548
   17DOPC  C314 2331   3.005   4.693   3.897  0.2715  0.2880 -0.4428
   17DOPC  H14X 2332   2.993   4.590   3.858 -0.3287 -0.1072  0.7383
   17DOPC  H14Y 2333   3.092   4.688   3.967 -0.5767  0.2024  0.6334
   17DOPC  C315 2334   2.878   4.739   3.973 -0.2608 -0.0032  0.6766
   17DOPC  H15X 2335   2.789   4.724   3.908  0.6637  1.2431 -0.9501
   17DOPC  H15Y 2336   2.894   4.843   4.007  0.1567 -0.2680  1.3132
   17DOPC  C316 2337   2.851   4.668   4.110  0.3269  0.3948 -0.0087
   17DOPC  H16X 2338   2.837   4.558   4.101  0.9057  0.0807  2.2323
   17DOPC  H16Y 2339   2.930   4.678   4.188  1.5618 -1.3356 -0.9887
   17DOPC  C317 2340   2.717   4.721   4.173 -0.3948  0.5649  0.5855
   17DOPC  H17X 2341   2.725   4.824   4.213 -0.9982  0.8881 -0.1127
   17DOPC  H17Y 2342   2.636   4.722   4.097 -0.2070  2.1975  0.3698
   17DOPC  C318 2343   2.667   4.629   4.282  0.2518 -0.5983 -0.2539
   17DOPC  H18X 2344   2.566   4.664   4.312  0.3115 -1.0661  0.5285
   17DOPC  H18Y 2345   2.653   4.527   4.240  1.5492 -1.1408  0.5543
   17DOPC  H18Z 2346   2.742   4.637   4.363  2.4559 -0.5445 -2.1805
   18DOPC     N 2347   4.086   3.510   5.146 -0.2052 -0.1242 -0.5071
   18DOPC   C12 2348   3.979   3.562   5.050  0.8753 -0.0002  0.2409
   18DOPC  H12A 2349   4.019   3.646   4.995  1.3413 -0.0906  0.4334
   18DOPC  H12B 2350   3.899   3.602   5.110  1.4400 -0.9569  1.6803
   18DOPC   C13 2351   4.028   3.427   5.255 -0.0522 -0.1082  0.0005
   18DOPC  H13A 2352   4.096   3.389   5.330 -1.2056 -0.7265  0.7580
   18DOPC  H13B 2353   3.962   3.482   5.320 -0.8063 -1.4113  0.3825
   18DOPC  H13C 2354   3.963   3.348   5.219 -2.4881  1.0947  1.4669
   18DOPC   C14 2355   4.169   3.621   5.196 -0.3123 -0.2087  0.2142
   18DOPC  H14A 2356   4.254   3.586   5.253 -1.9322 -1.3181  2.0906
   18DOPC  H14B 2357   4.192   3.701   5.128  0.5987 -0.3497  0.3441
   18DOPC  H14C 2358   4.122   3.663   5.284  1.2226 -1.1888  1.5853
   18DOPC   C15 2359   4.187   3.422   5.070  0.3795  0.6174 -0.2244
   18DOPC  H15A 2360   4.228   3.479   4.987 -0.5430  1.5252 -0.0808
   18DOPC  H15B 2361   4.127   3.336   5.044  1.5327 -0.5150  0.7491
   18DOPC  H15C 2362   4.269   3.387   5.131  1.2815 -0.2739 -1.8679
   18DOPC   C11 2363   3.909   3.458   4.959  0.0719 -0.2051  0.6889
   18DOPC  H11A 2364   3.833   3.513   4.899  0.4850  2.0232  2.1027
   18DOPC  H11B 2365   3.986   3.423   4.887 -1.1605 -1.7232  0.0262
   18DOPC     P 2366   3.711   3.347   5.078 -0.2471  0.0638 -0.3112
   18DOPC   O13 2367   3.696   3.483   5.144  0.6707  0.5959  0.6726
   18DOPC   O14 2368   3.697   3.228   5.164  0.2319 -0.9643  0.3448
   18DOPC   O12 2369   3.855   3.347   5.024 -0.8454  0.0251 -0.2824
   18DOPC   O11 2370   3.616   3.339   4.958  0.1773 -0.5316  0.5074
   18DOPC    C1 2371   3.632   3.274   4.829  0.1215  0.1964  0.9112
   18DOPC    HA 2372   3.544   3.209   4.809 -0.2947  1.2053 -0.7042
   18DOPC    HB 2373   3.718   3.203   4.825 -1.2549 -1.5244  0.3322
   18DOPC    C2 2374   3.623   3.379   4.716 -0.5398  0.0031  0.1515
   18DOPC    HS 2375   3.689   3.460   4.754  0.9685  0.3814 -2.9265
   18DOPC   O21 2376   3.487   3.408   4.692  0.0415  0.5980 -0.1288
   18DOPC   C21 2377   3.462   3.519   4.638  0.2254  0.4950  0.2567
   18DOPC   O22 2378   3.536   3.613   4.628  0.1857 -0.0621 -0.1694
   18DOPC   C22 2379   3.317   3.506   4.569  0.5158  0.1189 -0.5791
   18DOPC   H2R 2380   3.258   3.593   4.606 -1.8121 -1.4911 -0.2784
   18DOPC   H2S 2381   3.270   3.417   4.615  0.2955 -0.2822 -1.5532
   18DOPC    C3 2382   3.701   3.317   4.595 -1.1785 -1.0664 -0.8065
   18DOPC    HX 2383   3.647   3.223   4.568 -3.3555  0.3029 -1.4397
   18DOPC    HY 2384   3.803   3.292   4.632 -2.4191 -1.6664  2.5007
   18DOPC   O31 2385   3.705   3.404   4.477  0.5924 -0.0379  0.2128
   18DOPC   C31 2386   3.801   3.492   4.468  0.0670  0.5095  0.0770
   18DOPC   O32 2387   3.883   3.513   4.557 -0.2255  0.7246 -0.1005
   18DOPC   C32 2388   3.785   3.576   4.346 -0.1312 -0.6085  0.0194
   18DOPC   H2X 2389   3.710   3.654   4.374 -0.7538 -1.3804  0.5299
   18DOPC   H2Y 2390   3.877   3.628   4.312 -0.7714  0.7920  0.3433
   18DOPC   C23 2391   3.306   3.509   4.416 -0.5916 -0.0333 -0.2307
   18DOPC   H3R 2392   3.371   3.596   4.395  1.4847 -1.0952  1.4751
   18DOPC   H3S 2393   3.202   3.538   4.388 -0.8096  3.5705  3.3802
   18DOPC   C24 2394   3.362   3.388   4.345 -0.3823 -0.6224  0.4459
   18DOPC   H4R 2395   3.322   3.297   4.394 -0.5425 -0.8611 -0.1226
   18DOPC   H4S 2396   3.472   3.392   4.360 -0.3696  2.0000  0.1663
   18DOPC   C25 2397   3.319   3.402   4.201  0.8100  0.2355  0.7713
   18DOPC   H5R 2398   3.375   3.488   4.159  2.4772 -0.6573  1.0497
   18DOPC   H5S 2399   3.212   3.427   4.194  0.0378 -2.7017  0.5811
   18DOPC   C26 2400   3.351   3.265   4.134  0.3979 -0.3263 -0.4128
   18DOPC   H6R 2401   3.264   3.198   4.151  0.9396 -0.5751  1.5812
   18DOPC   H6S 2402   3.450   3.245   4.182  1.3616  1.5881 -1.4802
   18DOPC   C27 2403   3.388   3.273   3.987 -0.5454 -0.7130 -0.3666
   18DOPC   H7R 2404   3.436   3.178   3.957 -0.2312  0.2040 -3.0306
   18DOPC   H7S 2405   3.460   3.355   3.969 -0.8209 -0.4011 -0.0703
   18DOPC   C28 2406   3.272   3.305   3.887 -0.4484 -0.2267  0.7415
   18DOPC   H8R 2407   3.180   3.257   3.928 -2.0418  0.5916 -1.6572
   18DOPC   H8S 2408   3.294   3.255   3.790 -3.8408 -0.6570  0.0358
   18DOPC   C29 2409   3.246   3.452   3.876  0.2539 -0.1571 -0.3631
   18DOPC   H9R 2410   3.338   3.507   3.851 -0.6040  1.0625 -0.9263
   18DOPC  C210 2411   3.131   3.514   3.901 -0.6795 -0.5328  0.5725
   18DOPC  H10R 2412   3.110   3.611   3.853 -1.0653 -0.5567  0.6860
   18DOPC  C211 2413   3.010   3.447   3.956  0.4904  0.2070 -0.0273
   18DOPC  H11R 2414   2.963   3.517   4.028 -1.4376 -0.8438 -0.1885
   18DOPC  H11S 2415   3.042   3.360   4.017  1.2531  0.8454  0.5133
   18DOPC  C212 2416   2.904   3.414   3.855  0.3247  0.3276  1.0819
   18DOPC  H12R 2417   2.946   3.321   3.809 -0.3611  0.7676 -0.5080
   18DOPC  H12S 2418   2.898   3.492   3.776  0.0224 -0.6411  0.1210
   18DOPC  C213 2419   2.768   3.377   3.913 -0.4701 -0.0813  0.5914
   18DOPC  H13R 2420   2.763   3.443   4.002  0.6542 -0.9959  1.3601
   18DOPC  H13S 2421   2.780   3.271   3.944  0.5788 -0.9351 -2.3819
   18DOPC  C214 2422   2.659   3.394   3.802 -0.2361  0.3134 -0.1530
   18DOPC  H14R 2423   2.593   3.306   3.817 -2.2977  1.9792  1.3140
   18DOPC  H14S 2424   2.702   3.383   3.701 -2.1952 -0.8771 -0.9199
   18DOPC  C215 2425   2.575   3.517   3.816 -0.3483 -0.5135 -0.5609
   18DOPC  H15R 2426   2.648   3.600   3.828 -0.7213 -0.5522  3.2700
   18DOPC  H15S 2427   2.513   3.521   3.908  1.0178  0.5682  0.3457
   18DOPC  C216 2428   2.499   3.560   3.694 -0.2940  0.3473  0.3473
   18DOPC  H16R 2429   2.409   3.498   3.675  0.4594  0.0025 -2.6545
   18DOPC  H16S 2430   2.562   3.549   3.603  0.5770 -1.6660  1.1384
   18DOPC  C217 2431   2.456   3.708   3.697 -0.6748 -0.0673 -0.0967
   18DOPC  H17R 2432   2.547   3.772   3.703 -1.6752  1.5472 -1.3074
   18DOPC  H17S 2433   2.387   3.725   3.781 -1.6882 -0.4493 -0.8374
   18DOPC  C218 2434   2.392   3.762   3.566  0.6677  0.2948 -0.5352
   18DOPC  H18R 2435   2.460   3.773   3.480 -1.4020  2.5285 -1.9994
   18DOPC  H18S 2436   2.345   3.861   3.582 -0.9510 -0.0754 -2.5968
   18DOPC  H18T 2437   2.307   3.692   3.548 -2.1463  3.1144  0.8344
   18DOPC   C33 2438   3.729   3.493   4.222  0.3763 -0.5589 -0.5833
   18DOPC   H3X 2439   3.635   3.434   4.228  1.0887 -1.5957  2.1649
   18DOPC   H3Y 2440   3.802   3.410   4.206  0.1969 -1.4163  2.3764
   18DOPC   C34 2441   3.718   3.572   4.089 -0.3319 -0.8346 -0.2100
   18DOPC   H4X 2442   3.807   3.638   4.088 -0.2325 -0.9019  1.2932
   18DOPC   H4Y 2443   3.633   3.641   4.069  0.5327  0.1393 -0.6265
   18DOPC   C35 2444   3.736   3.481   3.973 -0.1472 -0.0502  0.6756
   18DOPC   H5X 2445   3.652   3.408   3.975 -1.4197  1.3446  2.9195
   18DOPC   H5Y 2446   3.831   3.426   3.985  0.1851  0.4174  0.2673
   18DOPC   C36 2447   3.736   3.551   3.837  0.0764  0.1120  0.0671
   18DOPC   H6X 2448   3.822   3.619   3.818  2.7849 -2.8877  0.5188
   18DOPC   H6Y 2449   3.757   3.459   3.778  1.4411 -0.7021  1.7047
   18DOPC   C37 2450   3.606   3.617   3.793  0.7885 -0.1750 -0.2492
   18DOPC   H7X 2451   3.575   3.583   3.692 -0.8823  1.0056 -0.1821
   18DOPC   H7Y 2452   3.524   3.575   3.855 -0.4726  1.3800 -0.7716
   18DOPC   C38 2453   3.607   3.771   3.807  0.2131 -0.0265  0.1847
   18DOPC   H8X 2454   3.653   3.815   3.716 -0.2855  0.5981  0.2272
   18DOPC   H8Y 2455   3.673   3.793   3.894  1.6039  1.7213 -1.2111
   18DOPC   C39 2456   3.466   3.823   3.832  0.5024 -0.1866  0.4830
   18DOPC   H9X 2457   3.432   3.835   3.936  1.6345 -1.1184  0.9697
   18DOPC  C310 2458   3.374   3.860   3.739  0.5580 -0.3494  0.6392
   18DOPC  H10X 2459   3.284   3.907   3.781  0.4628  2.3208 -2.2387
   18DOPC  C311 2460   3.373   3.835   3.589  0.3755  0.3957  0.3151
   18DOPC  H11X 2461   3.475   3.809   3.554 -0.0306  0.2968 -0.8348
   18DOPC  H11Y 2462   3.358   3.931   3.536  1.7693  0.8937  0.7844
   18DOPC  C312 2463   3.265   3.738   3.543 -0.4532  0.7997  0.5120
   18DOPC  H12X 2464   3.169   3.768   3.589 -1.1929  2.8795 -2.1799
   18DOPC  H12Y 2465   3.291   3.636   3.579  0.7533  0.3181 -1.5193
   18DOPC  C313 2466   3.250   3.746   3.389  0.6525 -0.1066  0.6104
   18DOPC  H13X 2467   3.177   3.674   3.346  1.1261 -0.4241  0.3250
   18DOPC  H13Y 2468   3.209   3.847   3.365 -0.1288 -1.0961 -2.8834
   18DOPC  C314 2469   3.378   3.719   3.311  0.5967  0.7810  0.1781
   18DOPC  H14X 2470   3.443   3.808   3.297 -1.9634  2.7308 -0.0305
   18DOPC  H14Y 2471   3.443   3.660   3.379 -1.4392  0.6654  2.1430
   18DOPC  C315 2472   3.366   3.637   3.175 -0.8917 -0.5153 -0.5822
   18DOPC  H15X 2473   3.282   3.565   3.167 -1.3925  0.0038 -0.0452
   18DOPC  H15Y 2474   3.462   3.585   3.153 -0.4350  0.7383 -1.6612
   18DOPC  C316 2475   3.340   3.738   3.063 -0.0285  0.1587  0.3414
   18DOPC  H16X 2476   3.247   3.795   3.079 -0.0086  0.2452  0.1469
   18DOPC  H16Y 2477   3.426   3.807   3.049  1.3473 -1.7579 -1.2909
   18DOPC  C317 2478   3.318   3.670   2.927  0.3817  0.2102 -0.6836
   18DOPC  H17X 2479   3.384   3.582   2.907  1.1254  0.9226 -1.4881
   18DOPC  H17Y 2480   3.212   3.637   2.927  1.2059 -2.7369 -1.2605
   18DOPC  C318 2481   3.336   3.767   2.809  0.0443 -0.1413  0.3761
   18DOPC  H18X 2482   3.251   3.828   2.771 -1.2981 -1.2793  1.4670
   18DOPC  H18Y 2483   3.409   3.842   2.847 -1.3336  1.3759  0.1497
   18DOPC  H18Z 2484   3.378   3.721   2.717  0.0197  0.4535  0.0570
   19DOPC     N 2485   3.011   3.414   5.113  0.7273  0.1653 -0.1440
   19DOPC   C12 2486   2.876   3.358   5.064  0.2703  0.1933  0.2458
   19DOPC  H12A 2487   2.834   3.312   5.152  3.3424 -1.2331  1.0943
   19DOPC  H12B 2488   2.902   3.282   4.991  0.1355  0.1133  0.2808
   19DOPC   C13 2489   2.980   3.516   5.216  0.1138  0.3895  0.7800
   19DOPC  H13A 2490   2.925   3.597   5.171  0.1602 -0.5992 -1.2016
   19DOPC  H13B 2491   2.913   3.472   5.288 -2.6252 -1.3710 -2.5027
   19DOPC  H13C 2492   3.069   3.554   5.262  1.8497 -0.2689 -1.7955
   19DOPC   C14 2493   3.102   3.457   5.003  0.3151 -0.4505  0.4428
   19DOPC  H14A 2494   3.107   3.385   4.923 -1.1009  0.7973 -0.8271
   19DOPC  H14B 2495   3.067   3.546   4.953 -0.5195 -0.7536  0.4817
   19DOPC  H14C 2496   3.200   3.475   5.045 -0.0069 -1.9349  1.9399
   19DOPC   C15 2497   3.079   3.307   5.190 -0.3285 -0.1701  0.2421
   19DOPC  H15A 2498   3.097   3.219   5.130  1.4407 -0.1135  0.6411
   19DOPC  H15B 2499   3.018   3.273   5.272  2.2270 -0.3661  2.1994
   19DOPC  H15C 2500   3.174   3.347   5.222  0.6166 -0.8958 -1.5191
   19DOPC   C11 2501   2.768   3.455   5.002  0.0147 -0.1469 -0.8704
   19DOPC  H11A 2502   2.823   3.509   4.922  0.3254  0.1921 -0.4305
   19DOPC  H11B 2503   2.687   3.402   4.947 -0.6877  0.2552 -0.2459
   19DOPC     P 2504   2.566   3.536   5.151 -0.6507  0.2856 -0.0616
   19DOPC   O13 2505   2.538   3.647   5.244 -0.4164 -0.4294 -0.4488
   19DOPC   O14 2506   2.536   3.403   5.205 -0.3358 -0.1353  0.3908
   19DOPC   O12 2507   2.716   3.543   5.096  0.3154 -0.4855 -0.5151
   19DOPC   O11 2508   2.474   3.562   5.031 -0.1177 -0.1283  0.3074
   19DOPC    C1 2509   2.500   3.660   4.928  0.5366  0.3478 -0.0447
   19DOPC    HA 2510   2.611   3.674   4.923  0.4371  1.8579  1.4061
   19DOPC    HB 2511   2.472   3.763   4.957  0.2606  0.0899  0.6196
   19DOPC    C2 2512   2.431   3.623   4.797 -0.0233 -0.5505 -0.1333
   19DOPC    HS 2513   2.435   3.723   4.748 -2.3383  0.3513  1.3640
   19DOPC   O21 2514   2.294   3.586   4.828 -0.4363 -0.2758 -0.3491
   19DOPC   C21 2515   2.217   3.684   4.859 -0.4040 -0.7976 -0.1560
   19DOPC   O22 2516   2.238   3.804   4.840  0.4459 -0.1927 -0.1834
   19DOPC   C22 2517   2.096   3.626   4.935 -0.4368  0.2461  0.0987
   19DOPC   H2R 2518   2.091   3.660   5.041  0.6024  0.8049 -0.0193
   19DOPC   H2S 2519   2.092   3.516   4.924  1.3412  0.2803 -1.2495
   19DOPC    C3 2520   2.495   3.507   4.717 -0.3516 -0.0608 -0.2439
   19DOPC    HX 2521   2.499   3.426   4.794 -0.4338  2.0550  2.1066
   19DOPC    HY 2522   2.602   3.530   4.696  0.6384 -0.3574  3.6938
   19DOPC   O31 2523   2.424   3.478   4.593 -0.4837 -0.3470  0.0614
   19DOPC   C31 2524   2.320   3.402   4.615  0.3525  1.5770  0.0269
   19DOPC   O32 2525   2.293   3.340   4.719 -0.2080  0.2325 -0.0681
   19DOPC   C32 2526   2.242   3.392   4.477  1.0707 -0.0047 -0.2995
   19DOPC   H2X 2527   2.145   3.440   4.500  0.6012 -1.4903  1.0166
   19DOPC   H2Y 2528   2.298   3.458   4.407 -1.8445  1.1354 -1.7335
   19DOPC   C23 2529   1.965   3.671   4.868  0.3164 -0.1303  0.2322
   19DOPC   H3R 2530   1.964   3.647   4.760 -0.2350 -1.1307  0.4475
   19DOPC   H3S 2531   1.965   3.780   4.887  1.3627 -0.3391  1.6784
   19DOPC   C24 2532   1.845   3.609   4.939  0.0260  0.2890 -0.2335
   19DOPC   H4R 2533   1.840   3.652   5.042  1.3919  3.3140 -1.3072
   19DOPC   H4S 2534   1.860   3.500   4.949  0.8342  0.3484 -0.6781
   19DOPC   C25 2535   1.705   3.636   4.882  0.1396 -0.1767 -0.8665
   19DOPC   H5R 2536   1.700   3.747   4.875  0.8493  0.0538  1.5348
   19DOPC   H5S 2537   1.634   3.599   4.960  1.5786  1.9489  1.5925
   19DOPC   C26 2538   1.687   3.583   4.738 -0.5934 -0.1052 -0.0539
   19DOPC   H6R 2539   1.694   3.473   4.749 -1.6549 -0.2113 -0.3072
   19DOPC   H6S 2540   1.761   3.626   4.668 -1.7328 -2.5253 -2.9529
   19DOPC   C27 2541   1.553   3.618   4.687 -0.0624  0.0261  0.0077
   19DOPC   H7R 2542   1.533   3.726   4.670 -1.2189 -0.4307 -1.8491
   19DOPC   H7S 2543   1.496   3.570   4.770  2.5350  0.0581  1.9109
   19DOPC   C28 2544   1.524   3.543   4.555 -0.6403 -0.0591  0.4465
   19DOPC   H8R 2545   1.413   3.532   4.552 -0.5713 -0.6900 -2.1125
   19DOPC   H8S 2546   1.551   3.435   4.561 -2.6458 -0.6166  0.2760
   19DOPC   C29 2547   1.568   3.606   4.421  0.6195  0.1415 -0.4192
   19DOPC   H9R 2548   1.678   3.613   4.410  0.9139 -0.0436  1.8796
   19DOPC  C210 2549   1.489   3.668   4.332  1.0923 -1.0186  1.2615
   19DOPC  H10R 2550   1.534   3.708   4.240  0.5270 -1.3798  0.8266
   19DOPC  C211 2551   1.339   3.663   4.332 -0.0874 -0.5914 -0.8252
   19DOPC  H11R 2552   1.303   3.753   4.277 -2.0347 -0.4885  0.4975
   19DOPC  H11S 2553   1.297   3.680   4.434  0.1905  2.7212 -1.1581
   19DOPC  C212 2554   1.291   3.527   4.282  0.6435  0.1649 -0.1993
   19DOPC  H12R 2555   1.184   3.520   4.312  1.1523 -4.0408  1.2436
   19DOPC  H12S 2556   1.339   3.449   4.344  0.7063  0.8782  0.6704
   19DOPC  C213 2557   1.313   3.504   4.133  0.3523 -0.5768  0.2976
   19DOPC  H13R 2558   1.273   3.402   4.113 -0.4932 -0.1299 -0.3269
   19DOPC  H13S 2559   1.421   3.510   4.106  0.3766  0.8404  0.6133
   19DOPC  C214 2560   1.223   3.597   4.051  0.0659 -0.5379  0.4905
   19DOPC  H14R 2561   1.262   3.701   4.049 -0.1711 -0.4465 -1.0955
   19DOPC  H14S 2562   1.131   3.594   4.113 -0.6312 -1.4023 -0.5517
   19DOPC  C215 2563   1.180   3.539   3.914  0.3138  0.1229 -0.2290
   19DOPC  H15R 2564   1.103   3.606   3.870  1.5983  2.2455  0.5684
   19DOPC  H15S 2565   1.125   3.451   3.954  1.8170 -0.3235  0.9615
   19DOPC  C216 2566   1.284   3.505   3.807  0.7591  0.4258 -0.0522
   19DOPC  H16R 2567   1.370   3.455   3.856  1.3246  0.8614 -0.5991
   19DOPC  H16S 2568   1.327   3.598   3.765 -0.3407  0.0975 -2.0285
   19DOPC  C217 2569   1.235   3.414   3.690 -0.2541  0.3777  0.0444
   19DOPC  H17R 2570   1.143   3.448   3.638 -0.3933 -0.1116 -0.0373
   19DOPC  H17S 2571   1.202   3.316   3.732 -2.6699  1.3152  0.4819
   19DOPC  C218 2572   1.338   3.399   3.592 -0.1558  0.0894  0.7660
   19DOPC  H18R 2573   1.437   3.412   3.640  0.7535  0.9284 -1.2278
   19DOPC  H18S 2574   1.321   3.460   3.501  1.3861 -1.3193 -0.5257
   19DOPC  H18T 2575   1.331   3.294   3.557 -2.5279  1.3259 -3.0239
   19DOPC   C33 2576   2.218   3.254   4.422 -0.3211 -0.6563  0.1782
   19DOPC   H3X 2577   2.146   3.275   4.340 -0.9753 -0.2257  0.8514
   19DOPC   H3Y 2578   2.158   3.197   4.496  1.7396 -1.1741  1.5375
   19DOPC   C34 2579   2.328   3.177   4.370  0.0086  1.4789 -0.0970
   19DOPC   H4X 2580   2.295   3.088   4.313  1.6747  1.2869 -0.8168
   19DOPC   H4Y 2581   2.395   3.139   4.450  0.2413  1.4429 -0.3051
   19DOPC   C35 2582   2.423   3.250   4.276  0.3858 -0.6772 -0.2246
   19DOPC   H5X 2583   2.461   3.341   4.328 -0.8289 -0.2991  0.0329
   19DOPC   H5Y 2584   2.366   3.291   4.191 -0.6087  0.8487  1.1196
   19DOPC   C36 2585   2.551   3.163   4.239 -0.7389  0.1137  0.8073
   19DOPC   H6X 2586   2.613   3.229   4.175 -1.0091  1.1227  1.5626
   19DOPC   H6Y 2587   2.600   3.132   4.333 -2.6995  0.8159  2.1406
   19DOPC   C37 2588   2.503   3.032   4.173 -0.5961 -0.1863 -0.0851
   19DOPC   H7X 2589   2.436   2.973   4.239 -1.3537  1.0239  0.2551
   19DOPC   H7Y 2590   2.444   3.053   4.082 -0.2400  1.4691  0.0408
   19DOPC   C38 2591   2.626   2.940   4.144  0.5076 -0.6105 -0.3527
   19DOPC   H8X 2592   2.584   2.849   4.096 -1.0927 -0.9157  1.4805
   19DOPC   H8Y 2593   2.685   2.907   4.232  0.5315 -2.1148 -0.8958
   19DOPC   C39 2594   2.722   2.996   4.035  0.1316 -0.4472 -0.0569
   19DOPC   H9X 2595   2.801   3.057   4.081 -0.4895  0.0017  0.4364
   19DOPC  C310 2596   2.718   2.985   3.898 -0.3081  0.3842 -1.1790
   19DOPC  H10X 2597   2.793   3.035   3.835 -0.5548  2.3417  0.0259
   19DOPC  C311 2598   2.615   2.912   3.818  0.3786  0.5763  0.0723
   19DOPC  H11X 2599   2.534   2.988   3.809  0.6109  1.1284  2.2077
   19DOPC  H11Y 2600   2.574   2.824   3.871 -1.0885  2.2377  1.8626
   19DOPC  C312 2601   2.642   2.882   3.665 -0.8141  0.0387 -0.7504
   19DOPC  H12X 2602   2.710   2.794   3.664 -0.1172  0.5551 -2.5452
   19DOPC  H12Y 2603   2.705   2.962   3.621  1.5633 -1.6629 -0.6526
   19DOPC  C313 2604   2.524   2.859   3.566 -0.3141  0.0543 -0.6449
   19DOPC  H13X 2605   2.455   2.789   3.618 -1.6309 -0.0285 -2.4469
   19DOPC  H13Y 2606   2.467   2.952   3.548 -2.1227 -1.3882 -2.9843
   19DOPC  C314 2607   2.572   2.786   3.440  0.6731 -0.4577  0.9095
   19DOPC  H14X 2608   2.602   2.685   3.474  1.0569 -0.7387 -0.2489
   19DOPC  H14Y 2609   2.483   2.758   3.380 -0.0036  0.1536  1.6000
   19DOPC  C315 2610   2.680   2.858   3.351  0.0767  0.6862  0.3422
   19DOPC  H15X 2611   2.727   2.783   3.285  0.7034  2.0895 -0.8712
   19DOPC  H15Y 2612   2.752   2.920   3.409  0.4174 -0.7386  1.4868
   19DOPC  C316 2613   2.607   2.956   3.246  0.4371 -0.1516 -1.1492
   19DOPC  H16X 2614   2.543   2.899   3.176 -3.3417 -0.8381  2.4778
   19DOPC  H16Y 2615   2.532   3.019   3.298  0.5146  0.6603 -1.9851
   19DOPC  C317 2616   2.698   3.035   3.157 -0.2344 -0.3740  0.5580
   19DOPC  H17X 2617   2.763   3.104   3.214 -1.5120  2.7404 -1.4714
   19DOPC  H17Y 2618   2.769   2.968   3.105  0.2081  0.6288 -0.1742
   19DOPC  C318 2619   2.618   3.119   3.061  0.4184  0.8136  0.1102
   19DOPC  H18X 2620   2.561   3.054   2.990 -0.6573  2.5402 -0.6651
   19DOPC  H18Y 2621   2.536   3.167   3.119  0.6271 -0.6787  1.7118
   19DOPC  H18Z 2622   2.677   3.190   2.999  1.6164 -0.5989 -0.4329
   20DOPC     N 2623   1.205   7.844   5.830 -0.3975  0.4720  0.2281
   20DOPC   C12 2624   1.158   7.881   5.688 -0.2185  0.1642  0.5891
   20DOPC  H12A 2625   1.083   7.957   5.703 -0.2505  0.1289  0.6105
   20DOPC  H12B 2626   1.102   7.795   5.654 -0.9345  1.1719 -0.8974
   20DOPC   C13 2627   1.095   7.795   5.912 -0.0798 -0.4339  0.0613
   20DOPC  H13A 2628   1.131   7.749   6.003  2.7982  0.8448 -0.3115
   20DOPC  H13B 2629   1.028   7.878   5.931  0.1011 -0.3359  0.2765
   20DOPC  H13C 2630   1.039   7.715   5.866 -0.8907 -0.8200  1.6342
   20DOPC   C14 2631   1.262   7.966   5.894 -0.0541  0.3363 -0.0441
   20DOPC  H14A 2632   1.348   8.006   5.842 -0.0810  0.6542  0.1486
   20DOPC  H14B 2633   1.184   8.040   5.880 -1.2890 -1.0017 -0.5476
   20DOPC  H14C 2634   1.281   7.953   6.000  1.8785  0.3256 -0.3629
   20DOPC   C15 2635   1.315   7.735   5.807  0.2360 -0.7015 -0.2482
   20DOPC  H15A 2636   1.354   7.705   5.903 -1.0883  1.7336  1.1403
   20DOPC  H15B 2637   1.387   7.759   5.731 -1.5540 -1.8885 -2.4763
   20DOPC  H15C 2638   1.264   7.647   5.768 -0.1766 -1.2537  1.4572
   20DOPC   C11 2639   1.275   7.927   5.587  0.4734  0.0782 -0.3680
   20DOPC  H11A 2640   1.237   7.994   5.507  0.3021 -0.7228 -0.9762
   20DOPC  H11B 2641   1.342   7.992   5.646  1.3962 -1.2537  0.1030
   20DOPC     P 2642   1.279   7.732   5.409 -0.5254 -0.1238 -0.0197
   20DOPC   O13 2643   1.131   7.744   5.420 -0.3181  0.5604 -0.2421
   20DOPC   O14 2644   1.336   7.600   5.395 -0.2633  0.0622  0.2763
   20DOPC   O12 2645   1.347   7.816   5.525 -0.2826  0.1612  0.8059
   20DOPC   O11 2646   1.320   7.824   5.286 -0.5291  0.0781 -0.2710
   20DOPC    C1 2647   1.453   7.816   5.228  0.2822 -0.4256 -0.4293
   20DOPC    HA 2648   1.477   7.708   5.221 -2.3860 -1.3377  2.3082
   20DOPC    HB 2649   1.531   7.868   5.288 -0.4445  0.3533 -0.1376
   20DOPC    C2 2650   1.456   7.900   5.098  0.6360  0.1520  0.3670
   20DOPC    HS 2651   1.424   8.002   5.128 -1.0609  0.3524 -1.7789
   20DOPC   O21 2652   1.370   7.837   5.003  0.4651  0.2466  0.3292
   20DOPC   C21 2653   1.261   7.903   4.964 -0.3832  0.8173  0.6390
   20DOPC   O22 2654   1.225   8.011   5.010 -0.2639  0.4792 -0.0304
   20DOPC   C22 2655   1.190   7.838   4.843  0.5208 -0.6921 -0.1145
   20DOPC   H2R 2656   1.219   7.731   4.848  0.0172 -0.8198  0.1632
   20DOPC   H2S 2657   1.229   7.868   4.744 -0.1578  0.0290 -0.1715
   20DOPC    C3 2658   1.592   7.907   5.031 -0.1656  0.5787 -0.6724
   20DOPC    HX 2659   1.631   7.807   5.003 -0.7309  0.7659 -2.2545
   20DOPC    HY 2660   1.668   7.946   5.101  0.7325 -1.6398 -0.3562
   20DOPC   O31 2661   1.585   7.982   4.910 -0.1559 -0.0839  0.0821
   20DOPC   C31 2662   1.572   8.116   4.925 -0.0174  0.0016  0.2902
   20DOPC   O32 2663   1.560   8.171   5.033  0.2880 -0.0643  0.2119
   20DOPC   C32 2664   1.595   8.177   4.784  0.2067  0.3250 -0.4499
   20DOPC   H2X 2665   1.674   8.255   4.795  1.1760 -0.5534 -1.0866
   20DOPC   H2Y 2666   1.629   8.096   4.717 -0.8382 -2.2050  1.9000
   20DOPC   C23 2667   1.040   7.858   4.841 -0.5058  0.0118  0.0147
   20DOPC   H3R 2668   0.996   7.955   4.873 -1.1538  0.7205 -2.8111
   20DOPC   H3S 2669   1.001   7.785   4.916 -0.6178  0.4129  0.3513
   20DOPC   C24 2670   0.977   7.817   4.705  0.8524  0.1940  1.0994
   20DOPC   H4R 2671   1.030   7.875   4.626  3.0955 -1.1885  1.4960
   20DOPC   H4S 2672   0.870   7.847   4.709  1.2994  1.7596  1.8955
   20DOPC   C25 2673   0.996   7.665   4.671  0.1817  0.7851 -0.1029
   20DOPC   H5R 2674   0.925   7.616   4.741 -0.9056  1.5746 -0.6307
   20DOPC   H5S 2675   1.104   7.639   4.674  0.7666  2.9917  0.0737
   20DOPC   C26 2676   0.937   7.622   4.534 -0.1932 -0.6048  0.3851
   20DOPC   H6R 2677   0.995   7.680   4.458 -1.4949 -1.5073 -1.3710
   20DOPC   H6S 2678   0.831   7.652   4.522  0.0437  0.7956  1.5676
   20DOPC   C27 2679   0.964   7.473   4.506 -0.1980 -0.2747 -0.7386
   20DOPC   H7R 2680   0.903   7.416   4.579 -0.9299  2.2773  0.7604
   20DOPC   H7S 2681   1.074   7.458   4.505  0.1084  1.7233 -0.9972
   20DOPC   C28 2682   0.935   7.445   4.358  0.2438 -0.4542 -0.4349
   20DOPC   H8R 2683   0.981   7.518   4.289 -1.7313 -0.2780 -1.6655
   20DOPC   H8S 2684   0.826   7.470   4.358  0.5885  1.1033 -0.7630
   20DOPC   C29 2685   0.960   7.298   4.319 -0.3639 -0.4821 -0.1091
   20DOPC   H9R 2686   0.922   7.226   4.393 -2.0565  0.4214 -0.0310
   20DOPC  C210 2687   0.973   7.259   4.193  0.5962 -0.0984  0.2254
   20DOPC  H10R 2688   0.967   7.151   4.171 -1.6853 -0.4208  1.9845
   20DOPC  C211 2689   0.989   7.352   4.070  0.2906 -0.2451  0.0533
   20DOPC  H11R 2690   1.059   7.435   4.093 -1.1454  0.7492  0.9633
   20DOPC  H11S 2691   0.898   7.396   4.025  1.1385  0.9242 -0.5961
   20DOPC  C212 2692   1.050   7.284   3.949 -0.5264  0.3216 -0.7247
   20DOPC  H12R 2693   1.059   7.350   3.861 -1.8876 -0.7215 -1.6857
   20DOPC  H12S 2694   0.983   7.202   3.915  0.7087 -0.4178 -1.4646
   20DOPC  C213 2695   1.189   7.230   3.993  0.2652 -0.1148  0.6418
   20DOPC  H13R 2696   1.181   7.127   4.035  1.5756 -1.5411 -2.3423
   20DOPC  H13S 2697   1.230   7.302   4.067  2.1612 -1.4249  0.9381
   20DOPC  C214 2698   1.298   7.240   3.880 -0.2566 -0.4575 -0.5312
   20DOPC  H14R 2699   1.257   7.198   3.786  0.3921 -1.1744 -0.4987
   20DOPC  H14S 2700   1.394   7.190   3.904 -0.4299 -0.7203 -0.3733
   20DOPC  C215 2701   1.336   7.382   3.832 -0.2270  0.1448  0.3981
   20DOPC  H15R 2702   1.246   7.442   3.808 -0.2129 -0.1315 -0.3577
   20DOPC  H15S 2703   1.398   7.366   3.742  1.4401 -1.7429  1.7731
   20DOPC  C216 2704   1.430   7.450   3.928  0.2988 -0.0273  0.5995
   20DOPC  H16R 2705   1.501   7.381   3.978  0.1705 -0.5668  0.0512
   20DOPC  H16S 2706   1.372   7.488   4.015 -0.5633  0.6117 -0.2393
   20DOPC  C217 2707   1.501   7.562   3.860  0.4762 -0.5001 -0.7963
   20DOPC  H17R 2708   1.424   7.628   3.814 -0.2956 -1.4193 -0.8572
   20DOPC  H17S 2709   1.567   7.520   3.782  0.7605 -0.6040 -0.4999
   20DOPC  C218 2710   1.590   7.645   3.956  0.2548 -0.3974 -0.0287
   20DOPC  H18R 2711   1.535   7.706   4.031  0.8367  1.4475 -1.0485
   20DOPC  H18S 2712   1.655   7.717   3.902  1.8893 -1.0962  0.9339
   20DOPC  H18T 2713   1.662   7.579   4.009  3.0962  0.7316 -2.2015
   20DOPC   C33 2714   1.473   8.245   4.720 -0.9120 -0.4184  0.1901
   20DOPC   H3X 2715   1.422   8.314   4.791 -2.0725  0.1004 -1.0939
   20DOPC   H3Y 2716   1.388   8.184   4.682 -0.3472  0.4384 -2.6478
   20DOPC   C34 2717   1.521   8.312   4.583  0.6471  0.0813 -1.0573
   20DOPC   H4X 2718   1.603   8.259   4.531  2.3240 -0.4648  1.9131
   20DOPC   H4Y 2719   1.565   8.410   4.614 -2.3950  0.5637  2.4688
   20DOPC   C35 2720   1.405   8.336   4.484 -0.5567  0.3315 -0.3416
   20DOPC   H5X 2721   1.336   8.404   4.538  0.4107 -0.5446  2.1439
   20DOPC   H5Y 2722   1.362   8.238   4.456  1.0760 -0.7939  0.8894
   20DOPC   C36 2723   1.465   8.407   4.364 -1.2645  0.7955  0.5349
   20DOPC   H6X 2724   1.534   8.488   4.395  1.8598 -0.9821 -1.2096
   20DOPC   H6Y 2725   1.531   8.335   4.310 -1.7915 -0.8284  1.9676
   20DOPC   C37 2726   1.360   8.456   4.267  0.0973  0.0247 -0.2044
   20DOPC   H7X 2727   1.301   8.370   4.229 -0.8716  0.9287 -0.7803
   20DOPC   H7Y 2728   1.287   8.515   4.325 -1.0725 -1.3786 -0.1806
   20DOPC   C38 2729   1.415   0.021   4.163 -0.4099  0.3906  0.3791
   20DOPC   H8X 2730   1.501   8.515   4.106 -1.1533  0.2447 -0.6734
   20DOPC   H8Y 2731   1.458   0.115   4.203  1.9889 -0.7095  0.5203
   20DOPC   C39 2732   1.311   0.058   4.064 -0.6478  0.2712 -0.1762
   20DOPC   H9X 2733   1.230   8.524   4.038 -0.0288  0.1367 -1.9271
   20DOPC  C310 2734   1.314   0.169   3.994  0.0131  0.3056 -0.2353
   20DOPC  H10X 2735   1.235   0.176   3.918  0.3482  1.5963 -0.4845
   20DOPC  C311 2736   1.404   0.286   3.986  0.2644 -0.4866 -0.3644
   20DOPC  H11X 2737   1.484   0.283   4.063 -1.8586 -0.6742  2.0141
   20DOPC  H11Y 2738   1.353   0.380   4.017  0.5666 -0.4509  0.0392
   20DOPC  C312 2739   1.463   0.283   3.844 -0.1019 -0.3518  0.4192
   20DOPC  H12X 2740   1.387   0.284   3.763 -0.9509  2.1986  1.1558
   20DOPC  H12Y 2741   1.511   0.185   3.824  1.5226  0.7182 -1.4027
   20DOPC  C313 2742   1.571   0.392   3.815  0.0673 -0.5692 -0.6013
   20DOPC  H13X 2743   1.648   0.376   3.894 -0.4539 -1.1224 -0.1987
   20DOPC  H13Y 2744   1.612   0.381   3.712 -0.4642 -0.3458 -0.8387
   20DOPC  C314 2745   1.525   0.541   3.832  1.2916 -0.1663  0.6064
   20DOPC  H14X 2746   1.476   0.566   3.735 -1.1932 -2.7651  1.0214
   20DOPC  H14Y 2747   1.451   0.544   3.915  3.1898 -3.1140  2.5782
   20DOPC  C315 2748   1.642   0.641   3.863  0.2765  0.0687  0.5825
   20DOPC  H15X 2749   1.708   0.596   3.939  1.2687 -2.5952 -1.6655
   20DOPC  H15Y 2750   1.590   0.733   3.898 -1.0421 -1.4141  2.7424
   20DOPC  C316 2751   1.725   0.676   3.736 -0.1343  0.2203 -0.5976
   20DOPC  H16X 2752   1.751   0.578   3.690  1.4605  0.3061  0.0574
   20DOPC  H16Y 2753   1.661   0.733   3.665  1.3503  0.2145 -2.0128
   20DOPC  C317 2754   1.860   0.752   3.755  0.5913 -0.2558 -0.0360
   20DOPC  H17X 2755   1.835   0.858   3.776  1.0377 -0.3814  1.1649
   20DOPC  H17Y 2756   1.916   0.713   3.843 -0.8918 -3.0734 -0.2269
   20DOPC  C318 2757   1.953   0.743   3.639  0.1283  0.1304  0.1032
   20DOPC  H18X 2758   2.023   0.829   3.632  1.2111 -0.7864 -0.7254
   20DOPC  H18Y 2759   2.008   0.647   3.643 -0.0967 -0.0559 -0.9105
   20DOPC  H18Z 2760   1.903   0.741   3.540  1.2376  0.3540 -0.4822
   21DOPC     N 2761   6.895   7.167   5.312  0.2203  0.0553  0.1661
   21DOPC   C12 2762   6.808   7.108   5.203 -0.4928 -0.2076  0.4745
   21DOPC  H12A 2763   6.711   7.108   5.251  0.0554 -0.5263  1.6293
   21DOPC  H12B 2764   6.840   7.007   5.184  1.6673  0.7441 -1.4107
   21DOPC   C13 2765   6.887   7.084   5.434 -0.0568 -0.1216 -0.2701
   21DOPC  H13A 2766   6.921   6.984   5.410 -2.3828 -0.7517 -1.2039
   21DOPC  H13B 2767   6.963   7.110   5.506 -1.0549 -1.1254  1.2009
   21DOPC  H13C 2768   6.792   7.073   5.484  0.2437 -2.1468 -0.0517
   21DOPC   C14 2769   6.863   7.307   5.348 -0.3849  0.3561  0.7601
   21DOPC  H14A 2770   6.869   7.369   5.260  0.6032  1.4871  1.5951
   21DOPC  H14B 2771   6.760   7.315   5.381 -0.0990  0.9411  1.5415
   21DOPC  H14C 2772   6.933   7.344   5.422  0.7713  1.2960 -0.7417
   21DOPC   C15 2773   7.037   7.176   5.267 -0.6032  0.7807 -0.2993
   21DOPC  H15A 2774   7.091   7.085   5.290  1.0922  1.6653 -0.6273
   21DOPC  H15B 2775   7.086   7.255   5.321 -2.1244  2.1720 -0.8871
   21DOPC  H15C 2776   7.038   7.189   5.160 -2.7959 -0.2119 -0.5037
   21DOPC   C11 2777   6.798   7.182   5.070 -0.0407  0.0449 -0.0155
   21DOPC  H11A 2778   6.892   7.164   5.014 -0.7696 -1.0055 -0.9504
   21DOPC  H11B 2779   6.722   7.136   5.004 -0.2774 -0.1295  0.3740
   21DOPC     P 2780   6.620   7.381   5.052  0.2975  0.1892 -0.2070
   21DOPC   O13 2781   6.599   7.499   5.138 -0.1217  0.3340 -0.0016
   21DOPC   O14 2782   6.526   7.268   5.077 -0.3668  0.5114  0.3703
   21DOPC   O12 2783   6.768   7.323   5.069 -1.1410 -1.0832 -0.4481
   21DOPC   O11 2784   6.614   7.425   4.900  0.4821  0.2389  0.3038
   21DOPC    C1 2785   6.736   7.457   4.830  0.2899  0.5863 -0.1154
   21DOPC    HA 2786   6.808   7.373   4.834 -0.4557 -0.0536  0.0494
   21DOPC    HB 2787   6.791   7.543   4.873 -1.6100  1.8300 -0.0347
   21DOPC    C2 2788   6.712   7.481   4.677 -0.0296  0.1295  0.4168
   21DOPC    HS 2789   6.816   7.480   4.637 -0.1601 -0.2490  0.0843
   21DOPC   O21 2790   6.648   7.606   4.661  0.3601  0.1648  0.0609
   21DOPC   C21 2791   6.667   7.677   4.555  0.0900 -0.4541  0.6489
   21DOPC   O22 2792   6.738   7.641   4.460 -0.5751 -0.0873  0.0618
   21DOPC   C22 2793   6.624   7.820   4.577  0.2714  0.3031  0.3849
   21DOPC   H2R 2794   6.692   7.876   4.645 -0.1134  2.4572 -0.9026
   21DOPC   H2S 2795   6.523   7.813   4.621 -0.1801 -0.9911 -0.7700
   21DOPC    C3 2796   6.637   7.373   4.609  0.1519  0.4621 -0.7937
   21DOPC    HX 2797   6.534   7.381   4.650  0.0997  0.4553 -0.9234
   21DOPC    HY 2798   6.654   7.268   4.640 -3.2348  0.5625  2.0315
   21DOPC   O31 2799   6.627   7.395   4.467 -0.0048 -0.4314 -0.0082
   21DOPC   C31 2800   6.720   7.339   4.390 -0.1610  0.4154 -0.2444
   21DOPC   O32 2801   6.814   7.273   4.433  0.0156 -0.5226 -0.2505
   21DOPC   C32 2802   6.680   7.365   4.248 -0.4937  0.4552  0.4587
   21DOPC   H2X 2803   6.583   7.312   4.232 -0.1172 -0.1240  0.0658
   21DOPC   H2Y 2804   6.665   7.471   4.221 -2.9759  0.0050 -0.2665
   21DOPC   C23 2805   6.633   7.888   4.440  0.3512 -0.4162  0.2272
   21DOPC   H3R 2806   6.585   7.834   4.355 -3.8193  2.1519  0.6648
   21DOPC   H3S 2807   6.737   7.909   4.408  0.3860  0.7861  1.0881
   21DOPC   C24 2808   6.576   8.030   4.457 -0.0965 -0.1586 -0.1435
   21DOPC   H4R 2809   6.628   8.075   4.544  0.7361 -1.4508  0.0518
   21DOPC   H4S 2810   6.467   8.015   4.475  0.3057 -2.0869  0.9834
   21DOPC   C25 2811   6.598   8.109   4.327  0.5160 -0.6034  0.0548
   21DOPC   H5R 2812   6.525   8.079   4.248 -0.2231 -0.6346  0.7329
   21DOPC   H5S 2813   6.695   8.092   4.275 -0.1805 -1.4439 -1.0261
   21DOPC   C26 2814   6.561   8.259   4.346  0.2350 -0.3554 -0.3649
   21DOPC   H6R 2815   6.588   8.286   4.450 -0.8811  0.3093 -0.2249
   21DOPC   H6S 2816   6.450   8.257   4.352  0.2466 -0.1394 -0.0941
   21DOPC   C27 2817   6.606   8.359   4.240 -0.0224 -0.1781 -0.1066
   21DOPC   H7R 2818   6.641   8.294   4.158 -0.2123 -3.0855  1.9575
   21DOPC   H7S 2819   6.696   8.413   4.278  0.1957  0.3667 -1.3485
   21DOPC   C28 2820   6.492   8.459   4.196 -0.1862  0.1666  0.1307
   21DOPC   H8R 2821   6.534   0.006   4.134 -1.3405  1.7127  1.3089
   21DOPC   H8S 2822   6.448   8.498   4.291 -0.3896 -0.3927  0.2713
   21DOPC   C29 2823   6.380   8.388   4.118  0.2471 -0.4663  0.2843
   21DOPC   H9R 2824   6.371   8.279   4.135  0.6690 -0.2305  2.2811
   21DOPC  C210 2825   6.324   8.450   4.013 -0.1395  0.6002  0.1084
   21DOPC  H10R 2826   6.236   8.405   3.964  0.8208 -0.5749 -0.5909
   21DOPC  C211 2827   6.321   0.066   3.996  0.7505  0.7908 -0.4182
   21DOPC  H11R 2828   6.339   0.116   4.093 -1.1082 -0.8089  0.8208
   21DOPC  H11S 2829   6.214   0.088   3.974  0.4977  1.0291  0.9749
   21DOPC  C212 2830   6.396   0.133   3.883 -0.6669  0.2818 -0.5369
   21DOPC  H12R 2831   6.504   0.109   3.896 -1.0581 -0.6098  1.4485
   21DOPC  H12S 2832   6.388   0.244   3.893  0.4578  0.5015 -1.7293
   21DOPC  C213 2833   6.357   0.082   3.751  0.1251 -0.0637 -0.3752
   21DOPC  H13R 2834   6.248   0.098   3.747 -0.0185 -0.1940  1.8158
   21DOPC  H13S 2835   6.392   8.513   3.733  0.6305  0.3777 -2.1765
   21DOPC  C214 2836   6.411   0.168   3.636 -0.0282  0.3611  0.8421
   21DOPC  H14R 2837   6.511   0.132   3.603 -0.2109 -0.0202  0.6983
   21DOPC  H14S 2838   6.418   0.270   3.681 -1.2321  0.7569  0.2034
   21DOPC  C215 2839   6.329   0.169   3.509 -0.0325  0.2309 -1.1288
   21DOPC  H15R 2840   6.239   0.232   3.520 -0.3838 -0.4226 -0.1269
   21DOPC  H15S 2841   6.284   0.069   3.492 -1.0172  0.3900  0.3806
   21DOPC  C216 2842   6.408   0.223   3.391  0.4245  0.0712  0.4329
   21DOPC  H16R 2843   6.501   0.162   3.385  0.0365 -0.6244  1.2730
   21DOPC  H16S 2844   6.443   0.328   3.393  2.5974 -0.5989  0.2087
   21DOPC  C217 2845   6.355   0.179   3.254 -0.1255  0.2870  0.8945
   21DOPC  H17R 2846   6.247   0.204   3.244 -0.0344  0.3852  0.0841
   21DOPC  H17S 2847   6.362   0.069   3.245 -0.3551  0.4478 -2.1239
   21DOPC  C218 2848   6.431   0.253   3.147  0.5589  0.6462 -0.6098
   21DOPC  H18R 2849   6.530   0.291   3.178 -0.4102  2.3906  0.5210
   21DOPC  H18S 2850   6.367   0.335   3.107 -2.1209 -1.4756 -1.0182
   21DOPC  H18T 2851   6.444   0.191   3.056 -0.8101  0.5248 -0.7479
   21DOPC   C33 2852   6.799   7.311   4.159  0.2218 -0.2533 -0.6035
   21DOPC   H3X 2853   6.814   7.202   4.174  0.3473 -0.0869  0.5683
   21DOPC   H3Y 2854   6.893   7.364   4.183  0.4295 -0.1414 -1.5911
   21DOPC   C34 2855   6.780   7.352   4.008 -0.2903  0.5412  0.1817
   21DOPC   H4X 2856   6.766   7.462   3.999 -0.4024  0.4344 -1.3189
   21DOPC   H4Y 2857   6.683   7.303   3.983 -0.6620  0.8743  0.9418
   21DOPC   C35 2858   6.871   7.289   3.901 -0.3274  1.6739  0.2422
   21DOPC   H5X 2859   6.862   7.178   3.903 -0.0169  1.5335 -2.2465
   21DOPC   H5Y 2860   6.978   7.310   3.920 -0.0530 -0.8651  2.0859
   21DOPC   C36 2861   6.829   7.334   3.764  0.5794 -0.0628 -0.3846
   21DOPC   H6X 2862   6.726   7.307   3.732  0.2018 -0.8802  1.4249
   21DOPC   H6Y 2863   6.827   7.445   3.766 -2.2741 -0.0058 -1.5766
   21DOPC   C37 2864   6.922   7.301   3.649  0.0090  0.2769 -0.4608
   21DOPC   H7X 2865   6.894   7.353   3.554 -1.4925  0.3877  0.0171
   21DOPC   H7Y 2866   7.023   7.339   3.676 -0.3387  1.4925 -0.7994
   21DOPC   C38 2867   6.939   7.150   3.619  0.3060 -0.5683 -0.2410
   21DOPC   H8X 2868   6.837   7.108   3.604  0.2962 -0.4367 -0.5569
   21DOPC   H8Y 2869   6.984   7.101   3.707  1.3217 -0.3023 -0.6021
   21DOPC   C39 2870   7.035   7.121   3.508 -0.4082  0.0202 -0.0511
   21DOPC   H9X 2871   6.999   7.156   3.410 -0.4832 -2.6160 -1.0436
   21DOPC  C310 2872   7.161   7.068   3.507 -0.3847 -0.6942 -0.4227
   21DOPC  H10X 2873   7.207   7.037   3.412  1.5364  2.0789 -0.5148
   21DOPC  C311 2874   7.247   7.034   3.627  0.2002  0.5868  0.4663
   21DOPC  H11X 2875   7.213   7.090   3.717 -0.6557  1.7515 -0.5629
   21DOPC  H11Y 2876   7.356   7.045   3.610  0.0799  1.9423  0.4805
   21DOPC  C312 2877   7.218   6.886   3.659 -0.2973 -0.2824 -0.3249
   21DOPC  H12X 2878   7.257   6.815   3.582 -2.4481 -1.7281 -0.1886
   21DOPC  H12Y 2879   7.111   6.864   3.680 -0.1424  0.8472  1.8945
   21DOPC  C313 2880   7.291   6.852   3.791  0.0208  0.5491 -0.1031
   21DOPC  H13X 2881   7.400   6.846   3.773  0.3340 -1.4338  1.9575
   21DOPC  H13Y 2882   7.266   6.929   3.866 -0.3025  0.7333 -0.3942
   21DOPC  C314 2883   7.249   6.710   3.837  0.1503  0.4347  0.9211
   21DOPC  H14X 2884   7.157   6.718   3.898 -0.7897 -2.1994  0.0035
   21DOPC  H14Y 2885   7.228   6.660   3.739  1.5407  2.1727 -0.3164
   21DOPC  C315 2886   7.352   6.630   3.920  0.1614  0.0097  0.0154
   21DOPC  H15X 2887   7.439   6.624   3.851  1.2277 -0.1459  1.3422
   21DOPC  H15Y 2888   7.315   6.527   3.939  1.4162 -0.2710  1.1031
   21DOPC  C316 2889   7.414   6.704   4.041 -0.1157 -0.7018 -0.0897
   21DOPC  H16X 2890   7.461   6.797   4.004 -3.6649  0.4115 -2.1837
   21DOPC  H16Y 2891   7.326   6.740   4.097 -1.5298 -2.3437 -1.1595
   21DOPC  C317 2892   7.518   6.625   4.118 -0.0314 -0.1251 -0.5416
   21DOPC  H17X 2893   7.522   6.664   4.222 -0.1088 -0.4332 -0.4199
   21DOPC  H17Y 2894   7.473   6.524   4.127 -1.1443  0.4435  0.6591
   21DOPC  C318 2895   7.649   6.617   4.052  0.2970  0.3816 -0.6091
   21DOPC  H18X 2896   7.714   6.557   4.120 -0.1487  0.0889 -0.4343
   21DOPC  H18Y 2897   7.639   6.561   3.957 -4.2259  0.6611 -0.4985
   21DOPC  H18Z 2898   7.696   6.717   4.042  2.4467 -0.5769 -0.6849
   22DOPC     N 2899   5.401   5.504   6.028  0.4256  0.5341  0.0489
   22DOPC   C12 2900   5.388   5.605   5.910 -0.1914 -0.0916 -0.3004
   22DOPC  H12A 2901   5.399   5.708   5.938 -1.6570  0.6767 -2.3318
   22DOPC  H12B 2902   5.290   5.592   5.867 -0.9803  0.0251  1.4138
   22DOPC   C13 2903   5.526   5.534   6.099  0.3252  1.7144  0.6477
   22DOPC  H13A 2904   5.604   5.531   6.025 -0.8008 -2.0914 -0.5895
   22DOPC  H13B 2905   5.521   5.632   6.145 -1.4509  1.0647  1.9730
   22DOPC  H13C 2906   5.549   5.467   6.181 -1.0078  0.1097 -0.2278
   22DOPC   C14 2907   5.379   5.359   5.981 -0.4881 -0.3546 -0.6468
   22DOPC  H14A 2908   5.277   5.349   5.948 -1.8295 -0.4786  3.0910
   22DOPC  H14B 2909   5.453   5.339   5.905  0.7013  0.7571  0.1758
   22DOPC  H14C 2910   5.394   5.296   6.067 -1.7566  0.4051  0.1691
   22DOPC   C15 2911   5.286   5.529   6.122 -0.3072 -0.1290 -0.2296
   22DOPC  H15A 2912   5.292   5.633   6.150  1.2126 -0.0532 -0.7265
   22DOPC  H15B 2913   5.295   5.473   6.214  2.7267  0.0118 -0.3474
   22DOPC  H15C 2914   5.195   5.511   6.067  0.1251  2.2812 -1.8788
   22DOPC   C11 2915   5.483   5.583   5.786 -0.3844 -0.1700 -0.7011
   22DOPC  H11A 2916   5.471   5.664   5.710 -0.6164  1.3484  0.8974
   22DOPC  H11B 2917   5.583   5.592   5.832  0.3670 -0.5851 -2.1880
   22DOPC     P 2918   5.570   5.383   5.646  0.0160  0.0784 -0.0563
   22DOPC   O13 2919   5.514   5.247   5.612  0.4867 -0.7642  0.1677
   22DOPC   O14 2920   5.691   5.385   5.730 -0.7525 -0.3155  0.6278
   22DOPC   O12 2921   5.455   5.462   5.720  0.3472 -0.4086 -0.0296
   22DOPC   O11 2922   5.600   5.456   5.508 -0.3228 -0.6629  0.9366
   22DOPC    C1 2923   5.493   5.526   5.440  0.0809 -0.0528 -0.9629
   22DOPC    HA 2924   5.475   5.632   5.469 -0.1247  1.0594 -4.6495
   22DOPC    HB 2925   5.396   5.473   5.453  0.5868 -0.8525 -0.3449
   22DOPC    C2 2926   5.514   5.519   5.284 -0.1605 -0.7494 -0.2521
   22DOPC    HS 2927   5.414   5.553   5.250 -0.1500 -0.5338 -0.0738
   22DOPC   O21 2928   5.555   5.385   5.256 -0.2286  0.0268  1.2336
   22DOPC   C21 2929   5.452   5.293   5.251 -0.0505 -0.7512  0.1741
   22DOPC   O22 2930   5.341   5.331   5.280 -0.4720 -0.2955 -0.0961
   22DOPC   C22 2931   5.495   5.153   5.207 -0.1250  0.5624 -0.4183
   22DOPC   H2R 2932   5.525   5.090   5.294 -0.2542 -0.8415 -1.3470
   22DOPC   H2S 2933   5.577   5.178   5.137 -0.3089  1.3865 -0.3506
   22DOPC    C3 2934   5.629   5.615   5.235 -0.1526  0.7992  0.3477
   22DOPC    HX 2935   5.696   5.611   5.324 -0.8240  0.8218  0.8592
   22DOPC    HY 2936   5.585   5.717   5.231 -0.4746  0.6747  0.6377
   22DOPC   O31 2937   5.698   5.571   5.116  0.0489 -0.0184 -0.1274
   22DOPC   C31 2938   5.632   5.599   5.011  1.0633  0.7263  0.7586
   22DOPC   O32 2939   5.524   5.655   5.008  0.0303 -0.6354  0.2839
   22DOPC   C32 2940   5.725   5.556   4.896  0.5989 -0.1802  0.2900
   22DOPC   H2X 2941   5.833   5.572   4.917  0.7922  1.9204 -1.8186
   22DOPC   H2Y 2942   5.712   5.447   4.882  3.3914 -0.4636 -0.6933
   22DOPC   C23 2943   5.391   5.087   5.116  0.4021 -0.1834  0.1602
   22DOPC   H3R 2944   5.293   5.088   5.167  0.1263 -1.6144 -0.3273
   22DOPC   H3S 2945   5.420   4.980   5.111 -1.9947 -0.8060 -2.3735
   22DOPC   C24 2946   5.374   5.148   4.973 -0.2789 -0.0053  0.1639
   22DOPC   H4R 2947   5.360   5.258   4.974  1.8880  0.3170 -0.3978
   22DOPC   H4S 2948   5.276   5.130   4.924 -0.0905  2.1664 -1.1233
   22DOPC   C25 2949   5.496   5.119   4.883  0.5711  0.4160  0.0076
   22DOPC   H5R 2950   5.504   5.008   4.888 -0.4840  0.3717  1.8252
   22DOPC   H5S 2951   5.589   5.164   4.924  1.3466 -0.0113 -1.2499
   22DOPC   C26 2952   5.478   5.171   4.745 -0.5527  0.6450  0.4707
   22DOPC   H6R 2953   5.494   5.280   4.737 -0.4138  0.5397 -0.8552
   22DOPC   H6S 2954   5.374   5.153   4.711 -0.5726  0.1698  0.7647
   22DOPC   C27 2955   5.586   5.105   4.652  0.5230 -0.0388 -0.2871
   22DOPC   H7R 2956   5.563   4.996   4.659  0.3554  0.1074  2.8705
   22DOPC   H7S 2957   5.688   5.123   4.692  0.0449  0.5476  0.6812
   22DOPC   C28 2958   5.589   5.164   4.506  0.2371  0.7458 -0.1795
   22DOPC   H8R 2959   5.610   5.273   4.520 -1.8056  1.0527  0.9249
   22DOPC   H8S 2960   5.489   5.149   4.461 -0.9924  0.7025  2.3793
   22DOPC   C29 2961   5.691   5.102   4.415 -0.2885  0.4111  0.3148
   22DOPC   H9R 2962   5.674   4.993   4.416  0.0634  0.3490 -0.0116
   22DOPC  C210 2963   5.797   5.149   4.343  1.2699 -0.6675  0.3542
   22DOPC  H10R 2964   5.863   5.075   4.295 -0.0726 -0.6545 -1.6200
   22DOPC  C211 2965   5.848   5.293   4.334  0.9790  0.0636 -0.4143
   22DOPC  H11R 2966   5.763   5.353   4.373 -0.5837 -1.8502 -0.7075
   22DOPC  H11S 2967   5.869   5.320   4.228  3.1728  0.6699  0.1291
   22DOPC  C212 2968   5.961   5.317   4.432  0.2261 -0.6738  0.1882
   22DOPC  H12R 2969   5.963   5.426   4.452  1.2511 -0.9575  1.7940
   22DOPC  H12S 2970   6.055   5.282   4.384 -1.0752  0.1789 -3.2346
   22DOPC  C213 2971   5.950   5.259   4.578  0.2340  0.6141  0.2648
   22DOPC  H13R 2972   5.944   5.148   4.571  4.0965  0.3701 -1.7488
   22DOPC  H13S 2973   5.858   5.304   4.620 -1.2195 -1.0639 -0.9775
   22DOPC  C214 2974   6.057   5.287   4.678 -0.0420 -0.0715 -0.5668
   22DOPC  H14R 2975   6.082   5.395   4.686  1.6217 -0.5382  1.6312
   22DOPC  H14S 2976   6.153   5.245   4.640  0.2481  0.5009 -0.4736
   22DOPC  C215 2977   6.026   5.250   4.817  0.4562  0.3316 -0.4148
   22DOPC  H15R 2978   6.007   5.141   4.815 -0.6236  0.5105 -0.8741
   22DOPC  H15S 2979   5.931   5.296   4.852  0.4087  0.0767 -0.2025
   22DOPC  C216 2980   6.136   5.277   4.924  0.3729 -0.2224  0.3379
   22DOPC  H16R 2981   6.167   5.383   4.911 -3.4512  1.5481  3.6591
   22DOPC  H16S 2982   6.225   5.214   4.901 -1.0094 -1.7202 -1.1824
   22DOPC  C217 2983   6.087   5.253   5.065 -0.0269 -0.6724  0.7295
   22DOPC  H17R 2984   6.008   5.329   5.083  0.9280  0.0554  1.9655
   22DOPC  H17S 2985   6.171   5.264   5.137  1.4187 -2.7145 -0.5265
   22DOPC  C218 2986   6.032   5.114   5.091 -0.3040 -0.1332  0.7499
   22DOPC  H18R 2987   6.104   5.043   5.044 -2.2288 -0.1489 -2.4851
   22DOPC  H18S 2988   5.936   5.102   5.036 -0.5160  1.7220  0.6661
   22DOPC  H18T 2989   6.021   5.094   5.200 -2.3012 -1.7066  0.3147
   22DOPC   C33 2990   5.692   5.635   4.764 -0.0463 -0.0576 -0.0439
   22DOPC   H3X 2991   5.663   5.738   4.792 -0.3825  0.1778 -1.2392
   22DOPC   H3Y 2992   5.616   5.582   4.704 -1.7336 -0.3036  2.1843
   22DOPC   C34 2993   5.814   5.660   4.673 -0.0652 -0.3473  0.3686
   22DOPC   H4X 2994   5.846   5.562   4.630 -4.5711 -1.8239 -0.1397
   22DOPC   H4Y 2995   5.901   5.704   4.726 -0.5611  2.7649 -1.1961
   22DOPC   C35 2996   5.781   5.742   4.549  0.1983  0.3452  1.0166
   22DOPC   H5X 2997   5.856   5.709   4.473 -2.6117 -3.1427 -0.5331
   22DOPC   H5Y 2998   5.777   5.852   4.562 -0.0592  0.4006  0.4985
   22DOPC   C36 2999   5.651   5.695   4.477  0.1691  0.4396  0.6748
   22DOPC   H6X 3000   5.647   5.585   4.465  0.9286  0.2249  2.1284
   22DOPC   H6Y 3001   5.576   5.723   4.555 -1.3255  0.2457 -0.6388
   22DOPC   C37 3002   5.623   5.775   4.344  0.1926  0.5594 -0.4211
   22DOPC   H7X 3003   5.651   5.879   4.374 -0.0495  1.0578 -1.8447
   22DOPC   H7Y 3004   5.704   5.745   4.275  0.6604 -1.6425  1.0044
   22DOPC   C38 3005   5.486   5.762   4.286 -0.1039 -0.0204  0.3379
   22DOPC   H8X 3006   5.406   5.815   4.341 -2.0920 -1.4911 -1.0229
   22DOPC   H8Y 3007   5.461   5.654   4.297 -1.0742 -0.1939 -2.6845
   22DOPC   C39 3008   5.475   5.815   4.143  0.0941 -0.7392  0.0823
   22DOPC   H9X 3009   5.461   5.923   4.136  2.3226 -0.3298  1.1105
   22DOPC  C310 3010   5.488   5.744   4.029 -0.0120  0.0664  0.2837
   22DOPC  H10X 3011   5.476   5.794   3.932 -0.8359  0.0617  0.3780
   22DOPC  C311 3012   5.507   5.589   4.028  0.1729 -0.5989 -0.6626
   22DOPC  H11X 3013   5.418   5.529   3.999 -1.9425  1.1327  1.7322
   22DOPC  H11Y 3014   5.543   5.546   4.124  1.4451 -1.5403 -1.5482
   22DOPC  C312 3015   5.604   5.567   3.912  0.0797  0.6824 -0.2485
   22DOPC  H12X 3016   5.650   5.468   3.934 -0.6435  0.9692  3.1971
   22DOPC  H12Y 3017   5.687   5.640   3.914 -0.1607  0.9546 -0.0967
   22DOPC  C313 3018   5.544   5.576   3.771  0.7557  0.7251  0.0790
   22DOPC  H13X 3019   5.439   5.543   3.780  1.4195 -1.4373  0.6148
   22DOPC  H13Y 3020   5.550   5.684   3.744 -0.8413  0.2184 -2.7123
   22DOPC  C314 3021   5.628   5.498   3.666 -0.3467 -1.1218  0.0936
   22DOPC  H14X 3022   5.734   5.523   3.686 -0.3028 -0.6575 -0.6908
   22DOPC  H14Y 3023   5.623   5.389   3.689 -1.2900 -1.3368 -1.0471
   22DOPC  C315 3024   5.583   5.522   3.527  0.1173  0.1896 -0.2977
   22DOPC  H15X 3025   5.556   5.629   3.514  3.1318  0.8530 -1.7844
   22DOPC  H15Y 3026   5.483   5.472   3.524 -0.2894  1.0376 -1.2570
   22DOPC  C316 3027   5.677   5.457   3.422 -0.3743  0.0917  0.3103
   22DOPC  H16X 3028   5.773   5.511   3.437 -0.8115  0.2192  3.3246
   22DOPC  H16Y 3029   5.692   5.352   3.455  0.8677 -0.4461 -1.7642
   22DOPC  C317 3030   5.632   5.476   3.280 -0.3739 -0.5514  0.0081
   22DOPC  H17X 3031   5.624   5.580   3.240 -0.6924 -0.4203  0.3965
   22DOPC  H17Y 3032   5.716   5.436   3.219 -1.3434  1.3160 -2.7734
   22DOPC  C318 3033   5.501   5.408   3.237  0.3950 -0.2672 -0.3545
   22DOPC  H18X 3034   5.408   5.467   3.225  0.7079  0.1148 -0.9719
   22DOPC  H18Y 3035   5.522   5.366   3.136 -0.3670 -0.9202 -0.2526
   22DOPC  H18Z 3036   5.483   5.321   3.303 -1.7816  0.1516 -0.3272
   23DOPC     N 3037   8.308   1.155   6.090 -0.2022 -0.5689  0.0561
   23DOPC   C12 3038   8.449   1.123   6.032 -0.3645 -0.5347 -0.0782
   23DOPC  H12A 3039   8.445   1.060   5.944  1.5355 -2.5472  1.1839
   23DOPC  H12B 3040   8.512   1.078   6.107  0.1204 -2.4163 -1.5484
   23DOPC   C13 3041   8.230   1.235   5.990 -0.0198  0.2765  0.1257
   23DOPC  H13A 3042   8.127   1.256   6.014  0.1328 -0.3615  1.4321
   23DOPC  H13B 3043   8.288   1.325   5.980  0.2292 -0.0574 -1.8822
   23DOPC  H13C 3044   8.232   1.177   5.899 -1.2878 -0.2769  0.4183
   23DOPC   C14 3045   8.314   1.217   6.224 -0.4537 -0.4050  0.1697
   23DOPC  H14A 3046   8.219   1.237   6.270  0.1233 -0.9919  1.6849
   23DOPC  H14B 3047   8.379   1.165   6.293  1.5901  0.4146 -1.0231
   23DOPC  H14C 3048   8.359   1.315   6.226 -1.9489  0.3548 -1.0058
   23DOPC   C15 3049   8.239   1.022   6.095  0.6485 -0.0926 -0.1247
   23DOPC  H15A 3050   8.300   0.953   6.152 -0.8668 -2.9195 -1.7155
   23DOPC  H15B 3051   8.211   0.986   5.997 -1.8593  0.9059  0.1486
   23DOPC  H15C 3052   8.151   1.028   6.158 -0.1983  1.9819 -1.3783
   23DOPC   C11 3053   8.532   1.241   5.987 -0.1249  0.6764  0.1043
   23DOPC  H11A 3054   8.534   1.324   6.061 -0.3027  1.1142 -0.3759
   23DOPC  H11B 3055   0.101   1.205   5.971 -0.5777  0.1561 -1.9828
   23DOPC     P 3056   0.032   1.385   5.776  0.3228  0.1220  0.2545
   23DOPC   O13 3057   0.144   1.300   5.729 -0.3998 -0.0998 -0.1601
   23DOPC   O14 3058   0.067   1.506   5.853  0.3743  0.2446  0.0297
   23DOPC   O12 3059   8.475   1.302   5.875  0.6214 -0.6984  0.1044
   23DOPC   O11 3060   8.483   1.422   5.649  0.3001  0.6473  0.1077
   23DOPC    C1 3061   8.401   1.329   5.582 -0.1015  0.4658 -0.3171
   23DOPC    HA 3062   8.303   1.382   5.581  0.1010  0.8962 -2.2882
   23DOPC    HB 3063   8.381   1.230   5.629 -3.6595  0.1738 -2.0664
   23DOPC    C2 3064   8.434   1.299   5.439 -0.3180 -0.3904 -0.0088
   23DOPC    HS 3065   0.004   1.267   5.456  0.2923  0.5933 -1.7301
   23DOPC   O21 3066   8.415   1.420   5.365  0.1504 -0.2758  0.6613
   23DOPC   C21 3067   8.507   1.444   5.275  0.3310  0.2116  0.2073
   23DOPC   O22 3068   0.083   1.397   5.271 -0.0131 -0.0752  0.0555
   23DOPC   C22 3069   8.453   1.550   5.173 -0.8186 -0.6591  0.1224
   23DOPC   H2R 3070   0.005   1.596   5.122  0.5551 -2.6206  0.5874
   23DOPC   H2S 3071   8.401   1.631   5.229  1.7102 -0.2820  2.1026
   23DOPC    C3 3072   8.340   1.185   5.376 -0.2056 -0.3136  0.2197
   23DOPC    HX 3073   8.235   1.220   5.378 -0.5852 -1.0013 -2.7241
   23DOPC    HY 3074   8.349   1.098   5.445  2.6863  0.8937  1.5067
   23DOPC   O31 3075   8.375   1.139   5.246  0.2335 -0.1253  0.1878
   23DOPC   C31 3076   8.488   1.075   5.238 -0.1298  0.0649  0.3612
   23DOPC   O32 3077   0.030   1.060   5.332  0.3299 -0.6837  0.1280
   23DOPC   C32 3078   8.512   1.016   5.098 -0.5475 -0.1687 -0.3201
   23DOPC   H2X 3079   0.050   0.934   5.106 -0.3430  0.1793  2.1618
   23DOPC   H2Y 3080   8.416   0.976   5.058 -1.4901  2.5308 -1.0222
   23DOPC   C23 3081   8.360   1.490   5.066 -0.6665 -0.2763  0.1308
   23DOPC   H3R 3082   8.256   1.482   5.105 -0.1428 -1.9051  1.2799
   23DOPC   H3S 3083   8.397   1.387   5.046 -1.0736 -0.6751  1.3384
   23DOPC   C24 3084   8.376   1.568   4.934  0.0852 -0.1774 -0.3725
   23DOPC   H4R 3085   8.402   1.674   4.958 -0.2187 -0.4558  1.3669
   23DOPC   H4S 3086   8.273   1.564   4.893 -0.3321 -0.7239  0.6969
   23DOPC   C25 3087   8.460   1.507   4.831 -0.6561  0.7789 -0.4221
   23DOPC   H5R 3088   8.422   1.403   4.822 -0.1173  0.4745  0.6385
   23DOPC   H5S 3089   0.026   1.488   4.872  1.1089  2.4405 -3.6079
   23DOPC   C26 3090   8.475   1.585   4.703 -0.6681 -0.0536  0.0601
   23DOPC   H6R 3091   8.492   1.688   4.740  1.4613 -0.2918 -0.1322
   23DOPC   H6S 3092   8.384   1.588   4.639 -0.4871 -0.4575 -0.2176
   23DOPC   C27 3093   0.049   1.526   4.617 -0.3353  0.4148  0.0875
   23DOPC   H7R 3094   0.014   1.423   4.594  1.1102 -0.0438 -0.2181
   23DOPC   H7S 3095   0.136   1.496   4.680  0.0931 -1.7592 -1.4302
   23DOPC   C28 3096   0.089   1.614   4.497 -0.5140  0.1325 -0.0653
   23DOPC   H8R 3097   0.191   1.581   4.465 -0.2864 -0.0410  0.8093
   23DOPC   H8S 3098   0.103   1.715   4.541  0.1178  0.0311 -0.0163
   23DOPC   C29 3099   8.524   1.602   4.385  0.0297 -0.2887 -0.4813
   23DOPC   H9R 3100   8.421   1.583   4.417  0.5680  0.2224  1.7006
   23DOPC  C210 3101   0.017   1.620   4.255  0.5813  0.1477 -0.6174
   23DOPC  H10R 3102   8.462   1.630   4.192 -0.0417  1.0274  0.3913
   23DOPC  C211 3103   0.145   1.653   4.183  0.5506  0.1712 -0.0966
   23DOPC  H11R 3104   0.228   1.644   4.256  1.7062  2.9083 -0.9287
   23DOPC  H11S 3105   0.152   1.754   4.137  1.1527 -0.1396 -0.7067
   23DOPC  C212 3106   0.178   1.549   4.072  0.7278 -0.0607 -0.1207
   23DOPC  H12R 3107   0.101   1.545   3.991 -2.6550 -1.3535  2.8778
   23DOPC  H12S 3108   0.177   1.443   4.105 -3.0895 -0.4135 -0.8507
   23DOPC  C213 3109   0.310   1.576   4.004 -0.2220  0.5874 -0.0679
   23DOPC  H13R 3110   0.331   1.488   3.940  1.7361  0.8208  0.1990
   23DOPC  H13S 3111   0.391   1.577   4.080 -1.8581 -1.1429  1.8377
   23DOPC  C214 3112   0.297   1.695   3.911 -0.0887 -0.4312 -0.1148
   23DOPC  H14R 3113   0.282   1.790   3.966 -1.3961 -1.0546  0.6534
   23DOPC  H14S 3114   0.205   1.688   3.848  0.7624  1.1716 -1.6470
   23DOPC  C215 3115   0.414   1.720   3.807  0.5174 -0.2085 -0.1919
   23DOPC  H15R 3116   0.405   1.645   3.726 -1.3970  0.6978 -0.8990
   23DOPC  H15S 3117   0.514   1.707   3.852  0.3358 -1.5903 -0.1306
   23DOPC  C216 3118   0.410   1.855   3.739  0.3571 -0.6247 -0.0536
   23DOPC  H16R 3119   0.310   1.901   3.728  0.2860 -0.8688 -0.4289
   23DOPC  H16S 3120   0.440   1.849   3.632  2.8959 -1.7304  0.6279
   23DOPC  C217 3121   0.503   1.965   3.793  0.6976 -0.2295 -0.0438
   23DOPC  H17R 3122   0.594   1.918   3.836 -0.3245 -1.6400  0.6719
   23DOPC  H17S 3123   0.460   2.012   3.884  0.8982  0.9662 -0.5538
   23DOPC  C218 3124   0.534   2.077   3.706 -0.6325  0.6919  0.7366
   23DOPC  H18R 3125   0.620   2.141   3.735  0.8283 -1.2658  0.8826
   23DOPC  H18S 3126   0.442   2.139   3.700 -0.3211  1.0081 -2.8327
   23DOPC  H18T 3127   0.543   2.049   3.599 -2.9047 -1.5507  1.0352
   23DOPC   C33 3128   0.032   1.124   5.001  0.8258 -0.6873  0.6714
   23DOPC   H3X 3129   0.114   1.185   5.043  0.5098  1.0440 -1.0624
   23DOPC   H3Y 3130   8.483   1.188   4.967  1.2442 -1.1370 -1.3505
   23DOPC   C34 3131   0.082   1.053   4.870 -0.2068  0.5231 -0.4632
   23DOPC   H4X 3132   8.525   1.000   4.836 -0.6993 -0.3433  2.0018
   23DOPC   H4Y 3133   0.166   0.981   4.885 -1.3005 -0.4553  1.5012
   23DOPC   C35 3134   0.121   1.164   4.765 -0.8432  0.0025  0.2473
   23DOPC   H5X 3135   0.195   1.232   4.812 -1.2756 -0.0757  1.0579
   23DOPC   H5Y 3136   0.035   1.227   4.734  0.4120  1.4181 -0.4626
   23DOPC   C36 3137   0.188   1.107   4.642 -0.1503  0.2339 -0.9974
   23DOPC   H6X 3138   0.285   1.062   4.673  0.1230  1.8351  0.5819
   23DOPC   H6Y 3139   0.135   1.017   4.604 -3.1312  1.6053 -0.3335
   23DOPC   C37 3140   0.215   1.203   4.530 -1.0018  0.1895  0.0968
   23DOPC   H7X 3141   0.122   1.208   4.469 -0.6200  0.5812 -0.4682
   23DOPC   H7Y 3142   0.220   1.303   4.579 -0.6695 -1.2143  3.1626
   23DOPC   C38 3143   0.334   1.162   4.446  0.0404  0.0841  0.3621
   23DOPC   H8X 3144   0.304   1.061   4.410 -2.8300  0.2735  1.9301
   23DOPC   H8Y 3145   0.411   1.154   4.525  0.7311  0.3360 -0.2702
   23DOPC   C39 3146   0.361   1.254   4.332  0.2987 -0.1182 -0.1464
   23DOPC   H9X 3147   0.278   1.247   4.260  1.1099 -1.1817 -1.0132
   23DOPC  C310 3148   0.471   1.323   4.306  0.6540  0.7809  0.4275
   23DOPC  H10X 3149   0.468   1.370   4.206  2.3973  1.7923  0.8140
   23DOPC  C311 3150   0.591   1.327   4.397  0.0585 -1.0678  1.2813
   23DOPC  H11X 3151   0.573   1.260   4.484 -1.5458 -1.0423  0.9932
   23DOPC  H11Y 3152   0.608   1.431   4.431  0.5640 -1.0093  0.8796
   23DOPC  C312 3153   0.720   1.281   4.332  0.2392 -0.7886 -0.0305
   23DOPC  H12X 3154   0.807   1.303   4.398 -0.7271  0.4005  0.8997
   23DOPC  H12Y 3155   0.753   1.337   4.242  0.5682  0.9716  1.1400
   23DOPC  C313 3156   0.717   1.127   4.285 -0.2917  0.1614  0.0434
   23DOPC  H13X 3157   0.655   1.075   4.361 -3.7769 -0.4078 -2.8917
   23DOPC  H13Y 3158   0.655   1.133   4.192  0.0598  0.2675 -0.1848
   23DOPC  C314 3159   0.855   1.063   4.263 -0.1632 -0.2806  0.1816
   23DOPC  H14X 3160   0.912   1.122   4.189  1.7351 -2.2951 -0.0702
   23DOPC  H14Y 3161   0.904   1.067   4.362  1.6870 -1.2644 -0.6506
   23DOPC  C315 3162   0.845   0.929   4.189  0.3046  0.5822 -0.1910
   23DOPC  H15X 3163   0.785   0.935   4.095 -0.3747  0.7363  0.2438
   23DOPC  H15Y 3164   0.788   0.860   4.255 -1.0425  0.8940 -0.9903
   23DOPC  C316 3165   0.981   0.857   4.152  0.6343  0.6273 -0.5175
   23DOPC  H16X 3166   0.962   0.749   4.133  1.4192  0.5477 -0.9082
   23DOPC  H16Y 3167   1.030   0.908   4.066 -0.8458  0.5675 -1.4336
   23DOPC  C317 3168   1.080   0.849   4.260  0.1056 -0.0503 -0.3287
   23DOPC  H17X 3169   1.172   0.806   4.214  1.1246  1.3522  0.3014
   23DOPC  H17Y 3170   1.105   0.954   4.288 -1.9499  0.5129 -0.4561
   23DOPC  C318 3171   1.047   0.762   4.388  0.0798  0.4917 -0.2480
   23DOPC  H18X 3172   1.045   0.654   4.361 -1.3090  0.3770  0.2456
   23DOPC  H18Y 3173   1.116   0.784   4.472  0.6243  0.1292 -0.5886
   23DOPC  H18Z 3174   0.943   0.785   4.417 -0.5790 -0.8693 -1.3796
   24DOPC     N 3175   0.919   1.605   5.586 -0.1455  0.3870 -0.1573
   24DOPC   C12 3176   1.037   1.606   5.485 -0.1523 -0.2564  0.0757
   24DOPC  H12A 3177   1.069   1.709   5.481 -0.8481 -0.0459 -0.1048
   24DOPC  H12B 3178   0.993   1.585   5.389 -3.1961 -1.6546  1.6542
   24DOPC   C13 3179   0.975   1.599   5.723 -0.2373  0.8427 -0.1363
   24DOPC  H13A 3180   1.038   1.684   5.745 -0.3702  1.7802 -3.0484
   24DOPC  H13B 3181   0.911   1.605   5.810  0.1262  1.5322  0.0886
   24DOPC  H13C 3182   1.049   1.521   5.739 -0.9282 -0.0327 -1.0902
   24DOPC   C14 3183   0.834   1.485   5.565  0.6589  0.3014 -0.3291
   24DOPC  H14A 3184   0.890   1.395   5.583  0.1817  0.1931  0.6618
   24DOPC  H14B 3185   0.753   1.488   5.635 -0.4287 -0.0870 -1.5268
   24DOPC  H14C 3186   0.786   1.490   5.468  0.6072  1.4849 -0.2558
   24DOPC   C15 3187   0.837   1.725   5.580  0.2712 -0.5516  0.0557
   24DOPC  H15A 3188   0.784   1.750   5.671  0.9132  0.3324  0.2007
   24DOPC  H15B 3189   0.764   1.717   5.500 -1.0668 -1.7952  1.3525
   24DOPC  H15C 3190   0.894   1.810   5.547  0.6463 -0.2560  1.4136
   24DOPC   C11 3191   1.159   1.517   5.503  0.6739  0.1392  0.1967
   24DOPC  H11A 3192   1.122   1.423   5.550  1.2970  0.4388  1.3227
   24DOPC  H11B 3193   1.197   1.488   5.403  0.6475  0.6855  0.0254
   24DOPC     P 3194   1.346   1.690   5.571 -0.0068  0.3008 -0.7179
   24DOPC   O13 3195   1.451   1.691   5.684 -0.0917 -0.2560  0.3830
   24DOPC   O14 3196   1.270   1.810   5.554  0.8961  0.1339 -0.2929
   24DOPC   O12 3197   1.242   1.572   5.605 -0.2638 -0.0372  0.8019
   24DOPC   O11 3198   1.410   1.653   5.424 -0.4608 -0.3140 -0.1907
   24DOPC    C1 3199   1.479   1.527   5.403  0.2503  0.4684 -0.5527
   24DOPC    HA 3200   1.416   1.457   5.344 -0.4072  0.2578  0.3763
   24DOPC    HB 3201   1.520   1.480   5.495 -0.8841 -0.2041 -0.3751
   24DOPC    C2 3202   1.598   1.562   5.303  0.1020 -0.1943  0.3728
   24DOPC    HS 3203   1.667   1.629   5.358 -1.0449  0.8761  0.5627
   24DOPC   O21 3204   1.537   1.619   5.188 -0.1608 -0.3264 -0.0559
   24DOPC   C21 3205   1.600   1.730   5.133 -0.8245 -0.0705  0.1349
   24DOPC   O22 3206   1.714   1.760   5.164 -0.8706  0.4285 -0.1092
   24DOPC   C22 3207   1.521   1.797   5.027 -0.1263 -0.6629  0.1591
   24DOPC   H2R 3208   1.451   1.862   5.084  1.2650  0.1963  0.9310
   24DOPC   H2S 3209   1.465   1.724   4.964 -0.3195  1.4333 -2.2562
   24DOPC    C3 3210   1.670   1.433   5.266  0.0782  0.0702 -0.1165
   24DOPC    HX 3211   1.721   1.405   5.361  1.4666  1.9453 -0.2390
   24DOPC    HY 3212   1.751   1.445   5.190 -0.1608 -1.4283 -0.6347
   24DOPC   O31 3213   1.579   1.333   5.223  1.1853  0.1427  0.0743
   24DOPC   C31 3214   1.587   1.285   5.102  0.0486  0.2407  0.0412
   24DOPC   O32 3215   1.686   1.287   5.033  0.0683  0.3282 -0.4445
   24DOPC   C32 3216   1.459   1.216   5.057  0.3230  0.3665 -0.1806
   24DOPC   H2X 3217   1.477   1.118   5.008 -0.2696  0.2324 -0.1445
   24DOPC   H2Y 3218   1.390   1.198   5.142  0.9988 -2.6830 -0.1380
   24DOPC   C23 3219   1.615   1.879   4.937  0.9887 -0.0400 -0.5211
   24DOPC   H3R 3220   1.700   1.926   4.991 -0.8278  3.0505 -0.0700
   24DOPC   H3S 3221   1.562   1.968   4.895  0.4580 -0.9385 -1.8309
   24DOPC   C24 3222   1.670   1.793   4.823  0.3497 -0.5090  0.1139
   24DOPC   H4R 3223   1.715   1.700   4.862  1.0026  0.2879  1.3090
   24DOPC   H4S 3224   1.747   1.849   4.767  0.9342  2.7121  3.6999
   24DOPC   C25 3225   1.559   1.752   4.719 -0.1532  0.3114  0.2830
   24DOPC   H5R 3226   1.522   1.847   4.675 -0.9492  0.8815  2.0988
   24DOPC   H5S 3227   1.470   1.710   4.772  0.2780 -0.6603  0.2570
   24DOPC   C26 3228   1.629   1.657   4.618  0.0560 -0.9451 -0.1267
   24DOPC   H6R 3229   1.665   1.569   4.676  0.7627 -0.1381  0.6950
   24DOPC   H6S 3230   1.726   1.687   4.574  0.9874 -3.0509  0.3426
   24DOPC   C27 3231   1.547   1.627   4.496  0.0938  0.2115 -0.3332
   24DOPC   H7R 3232   1.533   1.713   4.428 -1.7894  0.3105  0.1281
   24DOPC   H7S 3233   1.445   1.590   4.522  0.6958  0.1989  2.2886
   24DOPC   C28 3234   1.608   1.514   4.407  0.6952  0.0667  0.3740
   24DOPC   H8R 3235   1.708   1.556   4.386 -0.7029  3.0118 -1.0358
   24DOPC   H8S 3236   1.555   1.500   4.310  1.8038 -1.6110 -0.0396
   24DOPC   C29 3237   1.619   1.376   4.473 -0.2577 -0.9202 -0.0727
   24DOPC   H9R 3238   1.722   1.367   4.509  0.0940  2.3142  0.0351
   24DOPC  C210 3239   1.526   1.282   4.480 -0.6674  0.4626  0.1535
   24DOPC  H10R 3240   1.556   1.182   4.515 -0.7099 -0.4249 -2.1225
   24DOPC  C211 3241   1.384   1.292   4.430  0.7824  0.1827  0.1648
   24DOPC  H11R 3242   1.357   1.396   4.403 -1.0634 -0.1010  0.7887
   24DOPC  H11S 3243   1.320   1.277   4.520  1.8814 -1.3354  0.7418
   24DOPC  C212 3244   1.337   1.200   4.316  0.2200 -0.2398  0.0801
   24DOPC  H12R 3245   1.228   1.216   4.300  0.7473  2.3429 -1.5487
   24DOPC  H12S 3246   1.340   1.098   4.360 -0.8755  0.5720  2.1680
   24DOPC  C213 3247   1.399   1.218   4.177 -0.3314  0.2622  0.5149
   24DOPC  H13R 3248   1.505   1.185   4.170 -1.0382 -1.8771 -1.1586
   24DOPC  H13S 3249   1.402   1.326   4.152 -2.1874  0.4400  0.9068
   24DOPC  C214 3250   1.314   1.134   4.071 -0.0721 -0.2733 -0.5660
   24DOPC  H14R 3251   1.218   1.180   4.040 -0.5677 -0.7245  0.2680
   24DOPC  H14S 3252   1.293   1.040   4.127 -2.3775  0.5708  0.1213
   24DOPC  C215 3253   1.399   1.106   3.941  0.0976 -0.3246  1.1074
   24DOPC  H15R 3254   1.491   1.057   3.978  2.6921  3.8210  0.8357
   24DOPC  H15S 3255   1.423   1.203   3.893 -2.5554  1.0901  2.4327
   24DOPC  C216 3256   1.318   1.013   3.847 -0.1539 -0.4125 -0.1080
   24DOPC  H16R 3257   1.234   1.068   3.799  0.5949  1.2549  0.4153
   24DOPC  H16S 3258   1.278   0.926   3.904 -1.5269 -0.1417 -0.6137
   24DOPC  C217 3259   1.416   0.947   3.741  0.2237 -0.0881 -0.5454
   24DOPC  H17R 3260   1.509   0.931   3.799 -0.7310  2.0853  1.7902
   24DOPC  H17S 3261   1.450   1.012   3.657  1.3746 -1.2199 -0.9946
   24DOPC  C218 3262   1.364   0.817   3.685  0.2072  0.4763  0.1800
   24DOPC  H18R 3263   1.272   0.835   3.626 -1.6534 -0.5845  2.5668
   24DOPC  H18S 3264   1.336   0.746   3.766  1.0232 -1.2290 -0.9694
   24DOPC  H18T 3265   1.432   0.769   3.611 -0.7977  0.1277 -0.5448
   24DOPC   C33 3266   1.384   1.307   4.957  0.2722  0.3628  0.1090
   24DOPC   H3X 3267   1.293   1.246   4.938 -0.2458  0.7592  1.2382
   24DOPC   H3Y 3268   1.422   1.298   4.853  0.4224 -0.8742  0.2497
   24DOPC   C34 3269   1.360   1.457   4.976 -0.1617 -0.0358 -0.4808
   24DOPC   H4X 3270   1.458   1.502   4.948  0.0382 -1.0162 -1.4122
   24DOPC   H4Y 3271   1.340   1.467   5.085  0.3303 -2.4833 -0.0979
   24DOPC   C35 3272   1.243   1.518   4.902  0.2880 -0.2858  0.0258
   24DOPC   H5X 3273   1.248   1.628   4.914 -0.0671 -0.0187 -1.9681
   24DOPC   H5Y 3274   1.149   1.478   4.946  0.2964 -1.0480 -0.6306
   24DOPC   C36 3275   1.232   1.480   4.751 -0.0023 -0.4094  0.7660
   24DOPC   H6X 3276   1.323   1.505   4.693  1.4815 -1.9867  2.2941
   24DOPC   H6Y 3277   1.214   1.371   4.743 -0.8990 -0.3305  1.5107
   24DOPC   C37 3278   1.120   1.565   4.681 -0.3157  0.9531  0.2851
   24DOPC   H7X 3279   1.075   1.634   4.755  0.1036  1.8636 -0.2851
   24DOPC   H7Y 3280   1.159   1.626   4.597 -0.2226  1.5970  0.7894
   24DOPC   C38 3281   1.019   1.469   4.616 -0.9750 -0.4425 -0.6222
   24DOPC   H8X 3282   1.059   1.421   4.524 -0.8004 -1.2592 -0.1318
   24DOPC   H8Y 3283   0.940   1.538   4.579 -1.4141  0.5584  1.9410
   24DOPC   C39 3284   0.952   1.384   4.720 -0.3957 -0.2349 -0.0336
   24DOPC   H9X 3285   0.916   1.441   4.807  0.3414 -0.6809  0.5770
   24DOPC  C310 3286   0.977   1.257   4.737 -0.0479  0.4020 -0.5386
   24DOPC  H10X 3287   0.932   1.213   4.827 -3.0376  2.5168 -0.8567
   24DOPC  C311 3288   1.046   1.161   4.649 -0.4013  0.0855  0.2041
   24DOPC  H11X 3289   1.145   1.142   4.695 -0.5566 -2.8026 -0.5126
   24DOPC  H11Y 3290   1.065   1.203   4.548 -1.2542  2.4446  0.9533
   24DOPC  C312 3291   0.971   1.029   4.640 -0.1172  0.2199  0.3321
   24DOPC  H12X 3292   1.050   0.966   4.594  1.1487  1.9535  0.0327
   24DOPC  H12Y 3293   0.894   1.037   4.560  1.3666 -1.3735 -1.3574
   24DOPC  C313 3294   0.912   0.968   4.766  0.4550  0.1433 -0.0670
   24DOPC  H13X 3295   0.982   0.962   4.852  0.2442  0.0580  0.1015
   24DOPC  H13Y 3296   0.818   1.024   4.790  0.9165  0.8261  0.1624
   24DOPC  C314 3297   0.856   0.823   4.738 -0.1363 -0.2985  0.5015
   24DOPC  H14X 3298   0.762   0.811   4.796  0.8926  1.9065  2.8347
   24DOPC  H14Y 3299   0.833   0.811   4.630  0.8013  1.4993  0.0688
   24DOPC  C315 3300   0.959   0.716   4.766  1.0690 -0.1469  0.5598
   24DOPC  H15X 3301   0.965   0.717   4.877  1.6974 -0.3296  0.5288
   24DOPC  H15Y 3302   1.060   0.740   4.728  0.0940  1.9370 -0.9216
   24DOPC  C316 3303   0.912   0.570   4.729 -0.0687 -0.4134 -0.3643
   24DOPC  H16X 3304   0.818   0.548   4.785  0.8189  0.3907  1.5531
   24DOPC  H16Y 3305   0.887   0.563   4.621 -2.4483  0.1136  0.0886
   24DOPC  C317 3306   1.025   0.469   4.747 -0.6202  0.1191  0.6793
   24DOPC  H17X 3307   1.002   0.371   4.699 -1.2287  0.9584 -0.8346
   24DOPC  H17Y 3308   1.114   0.506   4.692  0.9582 -1.9369  1.7225
   24DOPC  C318 3309   1.066   0.454   4.889  0.3832 -0.4007 -0.0874
   24DOPC  H18X 3310   1.085   0.550   4.941  0.9951 -0.8987  0.6401
   24DOPC  H18Y 3311   0.976   0.410   4.935 -1.5857  2.8645 -0.5398
   24DOPC  H18Z 3312   1.156   0.391   4.908  0.8457 -0.0256 -0.9602
   25DOPC     N 3313   7.907   1.544   5.758  0.1626 -1.2041 -0.2766
   25DOPC   C12 3314   7.928   1.566   5.609  0.3921  0.1628  0.6471
   25DOPC  H12A 3315   7.981   1.480   5.570  1.6984  0.2591  2.0896
   25DOPC  H12B 3316   8.011   1.635   5.602  0.6546 -0.0574  1.4055
   25DOPC   C13 3317   7.897   1.672   5.830  0.1715 -0.5719  0.5071
   25DOPC  H13A 3318   7.861   1.650   5.930 -1.9911 -1.1220 -0.3373
   25DOPC  H13B 3319   7.991   1.724   5.838 -0.8248  1.2174  1.2067
   25DOPC  H13C 3320   7.829   1.743   5.786 -1.8172 -1.2169  2.3469
   25DOPC   C14 3321   8.028   1.470   5.819 -0.0067 -0.5345  0.0242
   25DOPC  H14A 3322   8.018   1.467   5.926  0.5098 -0.6433  0.0685
   25DOPC  H14B 3323   8.030   1.369   5.782  0.4069 -0.5088 -0.0241
   25DOPC  H14C 3324   8.121   1.518   5.792 -0.0945 -0.3540  0.0427
   25DOPC   C15 3325   7.782   1.463   5.778  0.6186 -0.2842 -0.0834
   25DOPC  H15A 3326   7.798   1.373   5.721 -1.4241 -2.2967  2.2752
   25DOPC  H15B 3327   7.695   1.516   5.743 -1.1923 -2.2029  1.2987
   25DOPC  H15C 3328   7.757   1.436   5.880  0.4550 -1.0470 -0.3264
   25DOPC   C11 3329   7.805   1.621   5.527  0.3125 -0.4581 -0.0538
   25DOPC  H11A 3330   7.759   1.706   5.582 -1.4178 -1.9059  0.8169
   25DOPC  H11B 3331   7.841   1.665   5.431 -1.4681 -1.2948 -1.1467
   25DOPC     P 3332   7.722   1.402   5.409  0.0952  0.3360 -0.0876
   25DOPC   O13 3333   7.590   1.374   5.350  0.3314 -0.0762  0.3079
   25DOPC   O14 3334   7.785   1.291   5.480 -0.0213 -0.3639 -0.3655
   25DOPC   O12 3335   7.708   1.522   5.505  0.0613 -0.3106  0.5306
   25DOPC   O11 3336   7.817   1.461   5.297 -0.1349 -0.9341 -0.2554
   25DOPC    C1 3337   7.770   1.564   5.214 -0.5992 -0.4704 -0.3105
   25DOPC    HA 3338   7.830   1.657   5.224 -1.2516  0.4209 -3.6093
   25DOPC    HB 3339   7.664   1.594   5.227 -0.4130  0.1925 -0.2774
   25DOPC    C2 3340   7.806   1.533   5.071  0.1084 -0.8523 -0.1644
   25DOPC    HS 3341   7.763   1.609   5.003  0.8766  0.7423  1.0648
   25DOPC   O21 3342   7.770   1.398   5.035  0.3648 -0.2184  0.4306
   25DOPC   C21 3343   7.638   1.374   5.012 -0.9732 -0.6760 -0.5380
   25DOPC   O22 3344   7.554   1.461   5.018 -0.3475 -0.0496 -0.0714
   25DOPC   C22 3345   7.607   1.235   4.960 -0.4778 -0.5254  0.1212
   25DOPC   H2R 3346   7.577   1.160   5.037  0.9626 -0.8332  0.4148
   25DOPC   H2S 3347   7.702   1.189   4.926 -1.3927 -0.2939 -3.0694
   25DOPC    C3 3348   7.956   1.547   5.044 -0.5436  0.4112  0.2530
   25DOPC    HX 3349   8.012   1.465   5.093 -1.4440 -0.1244  0.4093
   25DOPC    HY 3350   8.004   1.637   5.088  1.0073 -0.3361  0.1512
   25DOPC   O31 3351   7.996   1.538   4.906  0.1822 -0.1892  0.2807
   25DOPC   C31 3352   7.954   1.634   4.827  0.1008  0.2291 -0.0400
   25DOPC   O32 3353   7.896   1.733   4.863  0.2953  0.1393  0.0130
   25DOPC   C32 3354   8.015   1.590   4.693  0.0723 -0.4243 -0.0449
   25DOPC   H2X 3355   8.115   1.543   4.711  0.2962  0.1847  0.3326
   25DOPC   H2Y 3356   7.958   1.500   4.663  2.5465 -1.9804 -0.3935
   25DOPC   C23 3357   7.522   1.226   4.840  0.3337 -0.2762 -0.0718
   25DOPC   H3R 3358   7.419   1.252   4.874  1.0375 -0.3420  2.3145
   25DOPC   H3S 3359   7.522   1.118   4.813  0.8653 -0.3329  0.1485
   25DOPC   C24 3360   7.565   1.306   4.714  0.0936 -0.2647 -0.4445
   25DOPC   H4R 3361   7.539   1.413   4.731 -0.1819 -0.4209  0.1199
   25DOPC   H4S 3362   7.491   1.290   4.633 -0.2424  0.5465 -0.3066
   25DOPC   C25 3363   7.706   1.278   4.659 -0.0362  0.2717 -0.2550
   25DOPC   H5R 3364   7.707   1.169   4.637 -1.0268  0.4732 -1.4356
   25DOPC   H5S 3365   7.790   1.303   4.727 -2.5119 -0.5104  3.3686
   25DOPC   C26 3366   7.737   1.339   4.520 -0.0005  0.4372 -0.1237
   25DOPC   H6R 3367   7.722   1.447   4.541  1.4578  0.8003 -0.8780
   25DOPC   H6S 3368   7.657   1.298   4.454 -1.7139  2.7892  0.3528
   25DOPC   C27 3369   7.877   1.302   4.454 -0.1764  0.3215  0.9055
   25DOPC   H7R 3370   7.884   1.192   4.450 -0.3209  0.0332 -7.1941
   25DOPC   H7S 3371   7.962   1.350   4.507  0.8611 -1.5124  0.9946
   25DOPC   C28 3372   7.879   1.352   4.317 -0.4757  0.2997  0.1466
   25DOPC   H8R 3373   7.867   1.462   4.313 -0.2573  0.4254  1.9610
   25DOPC   H8S 3374   7.788   1.302   4.275 -1.3138 -0.4560  2.6772
   25DOPC   C29 3375   8.009   1.307   4.254  0.3833  0.2685  0.2307
   25DOPC   H9R 3376   8.096   1.336   4.314  0.3564 -0.2650  0.5352
   25DOPC  C210 3377   8.027   1.229   4.147  0.0489  0.7184  0.1180
   25DOPC  H10R 3378   8.127   1.195   4.116 -0.4478 -0.5176 -0.1765
   25DOPC  C211 3379   7.914   1.176   4.058 -0.0942 -0.8572 -0.3102
   25DOPC  H11R 3380   7.814   1.213   4.092 -1.1694 -2.7981 -1.1722
   25DOPC  H11S 3381   7.906   1.066   4.075 -1.8841 -0.5362  1.3056
   25DOPC  C212 3382   7.909   1.208   3.906 -0.5610 -0.0161  0.0876
   25DOPC  H12R 3383   7.812   1.172   3.868 -0.3897  1.0288 -1.4141
   25DOPC  H12S 3384   7.996   1.150   3.867 -0.2991 -0.2495  0.9753
   25DOPC  C213 3385   7.935   1.358   3.857  0.1741  0.0721  0.0242
   25DOPC  H13R 3386   8.029   1.399   3.899 -0.8019  1.6940  0.6980
   25DOPC  H13S 3387   7.850   1.411   3.904  0.1225 -2.3458  2.9016
   25DOPC  C214 3388   7.931   1.367   3.703 -0.1535 -0.6607 -0.0556
   25DOPC  H14R 3389   7.824   1.385   3.680 -0.1760 -2.0483 -1.1391
   25DOPC  H14S 3390   7.955   1.268   3.660  0.0986 -0.3584 -0.6339
   25DOPC  C215 3391   8.019   1.483   3.647  0.3365 -0.1692  0.9231
   25DOPC  H15R 3392   8.125   1.450   3.659  0.4242  0.6550  2.6267
   25DOPC  H15S 3393   8.022   1.583   3.694 -1.5449  1.7814 -2.6839
   25DOPC  C216 3394   7.992   1.520   3.501  0.6231  0.4745 -0.0848
   25DOPC  H16R 3395   8.056   1.609   3.487  1.0781  0.0615 -0.7246
   25DOPC  H16S 3396   7.887   1.555   3.503 -0.6166 -2.7986 -1.1142
   25DOPC  C217 3397   8.003   1.406   3.404 -0.0265 -0.1808  0.5494
   25DOPC  H17R 3398   7.964   1.443   3.307 -0.1842  1.1390  1.1022
   25DOPC  H17S 3399   7.939   1.322   3.439 -1.7312  1.3709  1.3099
   25DOPC  C218 3400   8.139   1.343   3.388 -0.2105  0.0412 -0.1443
   25DOPC  H18R 3401   8.142   1.275   3.301 -1.8406 -0.5241  0.2140
   25DOPC  H18S 3402   8.176   1.286   3.476  2.9180  2.2051  0.1427
   25DOPC  H18T 3403   8.221   1.416   3.370 -1.2695  0.6513 -2.9028
   25DOPC   C33 3404   8.015   1.698   4.580  0.5786  0.3232  0.1246
   25DOPC   H3X 3405   8.064   1.792   4.613  2.0672 -0.1336 -0.6606
   25DOPC   H3Y 3406   7.912   1.718   4.543  0.4569 -1.8838 -0.9204
   25DOPC   C34 3407   8.093   1.640   4.460  0.2670  0.7449 -0.1852
   25DOPC   H4X 3408   8.045   1.542   4.439 -0.6264  1.1252  0.0043
   25DOPC   H4Y 3409   8.195   1.610   4.493 -0.8796 -1.6414  1.5651
   25DOPC   C35 3410   8.088   1.725   4.332 -0.1095 -0.8947  0.6117
   25DOPC   H5X 3411   8.138   1.823   4.347 -3.2101  0.9409 -0.0913
   25DOPC   H5Y 3412   7.981   1.751   4.319 -0.5153 -2.5723  0.3692
   25DOPC   C36 3413   8.150   1.665   4.200 -0.0355 -0.0178  0.0816
   25DOPC   H6X 3414   8.247   1.626   4.235  0.0845 -0.4862 -0.7262
   25DOPC   H6Y 3415   8.082   1.583   4.167 -2.6289  2.3205 -0.7616
   25DOPC   C37 3416   8.170   1.766   4.096  0.2114  0.1009  0.1004
   25DOPC   H7X 3417   8.074   1.802   4.052  1.3749 -1.1215 -3.8638
   25DOPC   H7Y 3418   8.225   1.851   4.142  0.7019  0.3018 -0.8467
   25DOPC   C38 3419   8.244   1.706   3.980  0.0364  1.1320  0.2008
   25DOPC   H8X 3420   8.195   1.608   3.964  0.7109  0.9121 -0.6286
   25DOPC   H8Y 3421   8.348   1.681   4.010  0.5754  0.8535 -1.7344
   25DOPC   C39 3422   8.233   1.781   3.851  0.2863  0.0980 -0.2754
   25DOPC   H9X 3423   8.133   1.777   3.807 -1.0073  2.8443  2.0757
   25DOPC  C310 3424   8.329   1.852   3.786  0.5422 -0.2506  0.4944
   25DOPC  H10X 3425   8.303   1.887   3.685  3.6415  0.9477  0.0164
   25DOPC  C311 3426   8.462   1.899   3.839  0.8889 -0.2307 -0.2613
   25DOPC  H11X 3427   0.011   1.833   3.810  0.9914  0.0685 -0.6536
   25DOPC  H11Y 3428   8.450   1.904   3.949 -4.1188 -0.4482 -0.5495
   25DOPC  C312 3429   8.508   2.038   3.781 -0.2570 -0.2036 -1.1864
   25DOPC  H12X 3430   0.064   2.069   3.837  0.1588 -0.6153 -1.6136
   25DOPC  H12Y 3431   8.445   2.128   3.794  0.5173  0.3987 -1.4778
   25DOPC  C313 3432   0.011   2.038   3.631 -0.8452  0.1451  0.0366
   25DOPC  H13X 3433   0.068   1.946   3.604 -0.6094 -1.2739  4.4734
   25DOPC  H13Y 3434   8.450   2.050   3.577 -0.7034  0.7875 -0.0737
   25DOPC  C314 3435   0.083   2.169   3.597  0.2555 -0.2479 -0.2072
   25DOPC  H14X 3436   0.029   2.249   3.651 -0.1683 -2.0878  2.2723
   25DOPC  H14Y 3437   0.187   2.178   3.635  0.2019 -2.8589  0.7639
   25DOPC  C315 3438   0.098   2.202   3.444 -0.2352 -0.1869  0.1364
   25DOPC  H15X 3439   0.110   2.311   3.427 -0.2254 -0.3929 -1.2887
   25DOPC  H15Y 3440   0.003   2.181   3.390  1.0725 -0.5933 -2.1488
   25DOPC  C316 3441   0.212   2.128   3.380 -0.6697  0.4721 -0.6296
   25DOPC  H16X 3442   0.298   2.179   3.429 -1.3188  0.2285  0.7994
   25DOPC  H16Y 3443   0.191   2.021   3.400 -1.5344  0.7576  0.0338
   25DOPC  C317 3444   0.219   2.139   3.226 -0.3806 -0.2471 -0.2584
   25DOPC  H17X 3445   0.115   2.120   3.193 -0.7334  1.9650 -0.5719
   25DOPC  H17Y 3446   0.244   2.244   3.200 -2.6122 -0.3265 -3.2350
   25DOPC  C318 3447   0.320   2.038   3.171 -0.0410  0.4430  0.4216
   25DOPC  H18X 3448   0.290   1.938   3.209 -0.0365  0.7081  1.1397
   25DOPC  H18Y 3449   0.322   2.038   3.060 -2.9496  0.6249  0.2883
   25DOPC  H18Z 3450   0.422   2.057   3.210  0.6637 -2.2880  0.1386
   26DOPC     N 3451   4.028   2.005   5.427  0.2065 -0.1070 -0.0950
   26DOPC   C12 3452   4.131   1.900   5.410 -0.2710 -0.9434 -1.2349
   26DOPC  H12A 3453   4.184   1.918   5.317 -2.5809 -0.1597 -2.4680
   26DOPC  H12B 3454   4.086   1.801   5.410  1.4675 -1.9609  3.0750
   26DOPC   C13 3455   3.948   2.013   5.299 -0.5518  0.5668  0.6425
   26DOPC  H13A 3456   4.010   2.010   5.211  0.8654  1.6847  1.5446
   26DOPC  H13B 3457   3.892   1.920   5.293  0.2616  0.1381 -0.8879
   26DOPC  H13C 3458   3.886   2.100   5.284 -0.2333  0.6569 -0.1794
   26DOPC   C14 3459   4.074   2.145   5.454  0.4576  0.6507  0.4634
   26DOPC  H14A 3460   3.988   2.208   5.470  1.1612  2.2860 -1.6888
   26DOPC  H14B 3461   4.136   2.146   5.542 -1.4927 -0.4010  1.9263
   26DOPC  H14C 3462   4.124   2.181   5.365 -0.9401 -1.0050 -1.0588
   26DOPC   C15 3463   3.929   1.965   5.533  0.2603  0.5233 -0.7518
   26DOPC  H15A 3464   3.867   1.882   5.503  0.4831  0.9004 -2.3767
   26DOPC  H15B 3465   3.863   2.046   5.558  0.2737  0.5738 -0.8773
   26DOPC  H15C 3466   3.980   1.941   5.625 -0.7825  2.1515  0.2901
   26DOPC   C11 3467   4.223   1.888   5.526  0.2052 -0.2371 -1.1614
   26DOPC  H11A 3468   4.319   1.838   5.500 -0.1817 -1.1394 -0.8926
   26DOPC  H11B 3469   4.266   1.985   5.559  0.7369  0.1376 -2.8525
   26DOPC     P 3470   4.168   1.658   5.628 -0.3916  0.2004  0.2281
   26DOPC   O13 3471   4.065   1.597   5.719  0.1567 -0.2729  0.4749
   26DOPC   O14 3472   4.310   1.627   5.655  0.5105 -0.1778 -0.9048
   26DOPC   O12 3473   4.157   1.817   5.632  0.3156 -0.3121 -0.3747
   26DOPC   O11 3474   4.137   1.620   5.482 -0.1490  0.1961  0.1650
   26DOPC    C1 3475   4.208   1.515   5.411 -0.3028 -0.4758  0.7703
   26DOPC    HA 3476   4.136   1.431   5.402 -0.6300  0.0006 -2.1064
   26DOPC    HB 3477   4.299   1.482   5.466  0.5217  0.2059 -0.1317
   26DOPC    C2 3478   4.252   1.566   5.270  1.1036  0.3356 -0.4823
   26DOPC    HS 3479   4.281   1.474   5.215  0.4782  0.9132 -1.8133
   26DOPC   O21 3480   4.360   1.657   5.284  0.0803 -0.5226 -0.1450
   26DOPC   C21 3481   4.482   1.612   5.305 -0.1738 -0.3034  0.3548
   26DOPC   O22 3482   4.508   1.496   5.330 -0.0576 -0.0114  0.3945
   26DOPC   C22 3483   4.587   1.721   5.309  0.3711  0.2663  0.1833
   26DOPC   H2R 3484   4.690   1.678   5.312  0.6119  0.8960  2.0987
   26DOPC   H2S 3485   4.555   1.793   5.387 -1.9545  0.2395 -0.6577
   26DOPC    C3 3486   4.135   1.620   5.185 -0.1455 -0.0709 -0.7673
   26DOPC    HX 3487   4.080   1.697   5.244 -0.9291 -0.6116 -0.7711
   26DOPC    HY 3488   4.063   1.538   5.167 -0.0507 -0.1603 -0.7377
   26DOPC   O31 3489   4.172   1.673   5.059 -0.1959  0.0729 -0.0855
   26DOPC   C31 3490   4.204   1.802   5.036  0.7802 -0.1530  0.5886
   26DOPC   O32 3491   4.177   1.899   5.103 -0.4148 -0.2374 -0.4511
   26DOPC   C32 3492   4.258   1.804   4.894  0.2043 -0.2994  0.6402
   26DOPC   H2X 3493   4.336   1.726   4.890  1.5512  1.0529 -1.1466
   26DOPC   H2Y 3494   4.181   1.775   4.820  0.3658  1.1384 -0.1405
   26DOPC   C23 3495   4.586   1.804   5.178  0.3118  0.4111 -0.1546
   26DOPC   H3R 3496   4.486   1.848   5.157 -1.6537 -3.6801 -0.3620
   26DOPC   H3S 3497   4.620   1.740   5.094  1.3726 -0.2594  0.7592
   26DOPC   C24 3498   4.673   1.927   5.190 -0.2940  0.0735  0.8437
   26DOPC   H4R 3499   4.775   1.888   5.171 -0.4610 -0.1295  0.3598
   26DOPC   H4S 3500   4.683   1.973   5.291  1.0898  1.0941  0.2811
   26DOPC   C25 3501   4.639   2.034   5.094 -0.0065  0.2226  0.0035
   26DOPC   H5R 3502   4.666   2.128   5.147  0.4818  0.8036 -1.2343
   26DOPC   H5S 3503   4.531   2.052   5.079 -0.1618 -1.4119 -1.0974
   26DOPC   C26 3504   4.738   2.037   4.978 -0.8519  0.0424  0.4512
   26DOPC   H6R 3505   4.718   1.954   4.908 -2.1388  0.4279  0.3455
   26DOPC   H6S 3506   4.843   2.018   5.011  0.1901 -0.2215 -2.7344
   26DOPC   C27 3507   4.741   2.169   4.906  0.2584  0.0066 -0.0554
   26DOPC   H7R 3508   4.784   2.241   4.980  1.8503  0.1679 -1.0826
   26DOPC   H7S 3509   4.635   2.199   4.901  0.5117  1.5535  2.1945
   26DOPC   C28 3510   4.816   2.180   4.777 -0.2880 -0.2530  0.0320
   26DOPC   H8R 3511   4.923   2.151   4.789 -0.5092 -1.1491 -0.0813
   26DOPC   H8S 3512   4.811   2.289   4.754 -1.4676 -0.2773  0.1495
   26DOPC   C29 3513   4.770   2.102   4.663  0.0800  0.2176  0.6853
   26DOPC   H9R 3514   4.767   1.993   4.677  2.0134 -0.1562 -1.3236
   26DOPC  C210 3515   4.738   2.148   4.540  0.3343 -0.1294 -0.0689
   26DOPC  H10R 3516   4.707   2.077   4.462 -1.5585  0.2767  0.2717
   26DOPC  C211 3517   4.740   2.290   4.506 -0.3562 -0.3135 -0.0634
   26DOPC  H11R 3518   4.845   2.326   4.515 -0.0966 -0.9267 -0.6275
   26DOPC  H11S 3519   4.672   2.353   4.568  0.1318  0.8802 -0.6978
   26DOPC  C212 3520   4.690   2.300   4.360  0.0793  0.0603 -0.1910
   26DOPC  H12R 3521   4.690   2.410   4.345  1.8151  0.4629  2.2166
   26DOPC  H12S 3522   4.584   2.267   4.349  0.5814 -1.2339 -1.3331
   26DOPC  C213 3523   4.767   2.229   4.250 -0.1776  0.6157  0.7201
   26DOPC  H13R 3524   4.871   2.208   4.284  0.6855  0.2573 -1.9118
   26DOPC  H13S 3525   4.788   2.306   4.173 -0.8620  0.5865  0.4976
   26DOPC  C214 3526   4.705   2.108   4.172  0.5854 -0.3914 -0.5312
   26DOPC  H14R 3527   4.604   2.141   4.141  0.6702 -0.6769 -1.1224
   26DOPC  H14S 3528   4.685   2.024   4.241  0.2058 -0.6468 -0.9541
   26DOPC  C215 3529   4.800   2.064   4.059 -0.7066  0.5449 -0.0936
   26DOPC  H15R 3530   4.761   1.965   4.029  2.5029 -1.2204  1.1120
   26DOPC  H15S 3531   4.904   2.046   4.092 -1.4381 -1.4226  1.3257
   26DOPC  C216 3532   4.804   2.150   3.933  0.9628 -0.4556  0.6169
   26DOPC  H16R 3533   4.738   2.236   3.951  1.8950  0.4603 -0.1959
   26DOPC  H16S 3534   4.763   2.100   3.842 -0.2652  2.2922 -0.4353
   26DOPC  C217 3535   4.947   2.212   3.918 -0.2115  0.1172  0.2500
   26DOPC  H17R 3536   5.013   2.123   3.912 -0.6698 -0.1598 -1.3973
   26DOPC  H17S 3537   4.968   2.272   4.009  0.0589 -2.2674  1.8285
   26DOPC  C218 3538   4.975   2.284   3.789 -0.6623 -0.2581 -0.4862
   26DOPC  H18R 3539   4.912   2.375   3.786 -1.4151 -0.6977  0.9513
   26DOPC  H18S 3540   4.947   2.237   3.692  1.8986  1.6664 -2.3401
   26DOPC  H18T 3541   5.083   2.313   3.787 -1.0813  1.3682 -1.3583
   26DOPC   C33 3542   4.308   1.945   4.855 -0.5021  0.2860  0.7789
   26DOPC   H3X 3543   4.386   1.932   4.777 -0.6085 -2.6970  1.0332
   26DOPC   H3Y 3544   4.373   1.997   4.927 -1.0691  4.2095 -1.2750
   26DOPC   C34 3545   4.211   2.050   4.806 -0.2407 -0.3380  0.1980
   26DOPC   H4X 3546   4.140   2.071   4.889  0.3545 -0.6314  0.7905
   26DOPC   H4Y 3547   4.153   2.015   4.718 -1.0446 -1.8662  1.2835
   26DOPC   C35 3548   4.297   2.176   4.767 -0.1577  0.3628 -0.3989
   26DOPC   H5X 3549   4.327   2.234   4.856 -1.3088  1.3690 -0.6419
   26DOPC   H5Y 3550   4.224   2.240   4.713  0.7079 -0.2974 -2.4910
   26DOPC   C36 3551   4.408   2.155   4.663  0.1498 -0.1830 -0.0242
   26DOPC   H6X 3552   4.453   2.254   4.641 -1.0821  0.9966  2.3359
   26DOPC   H6Y 3553   4.491   2.095   4.705 -0.0735  0.4838  1.4360
   26DOPC   C37 3554   4.368   2.096   4.523  0.0348  0.2941  0.4931
   26DOPC   H7X 3555   4.459   2.072   4.464 -0.2417 -1.3910  0.7164
   26DOPC   H7Y 3556   4.320   2.002   4.556  1.5610 -0.9192 -0.5966
   26DOPC   C38 3557   4.260   2.175   4.445  0.2842 -0.3969 -0.2079
   26DOPC   H8X 3558   4.183   2.180   4.525  0.3280 -0.1997 -0.1792
   26DOPC   H8Y 3559   4.227   2.095   4.375  2.7185 -1.8661  0.2167
   26DOPC   C39 3560   4.300   2.305   4.388  0.4536  0.0224  0.5316
   26DOPC   H9X 3561   4.368   2.361   4.454 -1.2917  4.0593 -0.8068
   26DOPC  C310 3562   4.271   2.352   4.265  0.2894 -0.6104  0.1151
   26DOPC  H10X 3563   4.317   2.446   4.231  0.7912 -0.8200  0.2162
   26DOPC  C311 3564   4.195   2.278   4.152  0.4281 -0.4920 -0.3061
   26DOPC  H11X 3565   4.135   2.199   4.201  1.0356  0.0007  1.3063
   26DOPC  H11Y 3566   4.258   2.209   4.093  0.6913 -0.1237 -0.4630
   26DOPC  C312 3567   4.113   2.357   4.053 -0.6222 -0.1717  0.8350
   26DOPC  H12X 3568   4.167   2.443   4.008  0.5612 -1.0286  0.5534
   26DOPC  H12Y 3569   4.029   2.414   4.098  0.2391  0.0567  2.2036
   26DOPC  C313 3570   4.084   2.270   3.930  0.6355  0.1318  0.0613
   26DOPC  H13X 3571   4.181   2.233   3.890  0.0839 -1.9899  0.5886
   26DOPC  H13Y 3572   4.029   2.181   3.968  0.3614 -0.0250 -0.6898
   26DOPC  C314 3573   4.005   2.343   3.819  0.7759 -0.2232 -0.3150
   26DOPC  H14X 3574   3.897   2.343   3.846  0.8247  0.8282 -0.0666
   26DOPC  H14Y 3575   4.027   2.452   3.819  0.6954 -0.2051  0.0458
   26DOPC  C315 3576   4.018   2.288   3.676  0.8599  0.4885  0.1715
   26DOPC  H15X 3577   4.126   2.271   3.657  0.5384  0.8714 -2.2455
   26DOPC  H15Y 3578   3.985   2.368   3.607  1.9284 -0.4486 -1.4849
   26DOPC  C316 3579   3.938   2.161   3.640  0.1164  0.5597  0.0476
   26DOPC  H16X 3580   3.953   2.096   3.729  1.5638 -3.2821 -2.7366
   26DOPC  H16Y 3581   3.831   2.188   3.630 -0.9616 -2.5676  1.8709
   26DOPC  C317 3582   3.982   2.078   3.520  0.3087 -0.2677 -0.3602
   26DOPC  H17X 3583   3.957   2.134   3.427 -0.3809  0.1994  0.0872
   26DOPC  H17Y 3584   4.092   2.064   3.527  0.4346  0.7079 -0.1128
   26DOPC  C318 3585   3.906   1.942   3.510  0.0417  0.3974 -0.2688
   26DOPC  H18X 3586   3.797   1.950   3.532  0.0217  0.2320 -0.3092
   26DOPC  H18Y 3587   3.920   1.888   3.414  0.2698 -1.2183  0.6504
   26DOPC  H18Z 3588   3.935   1.873   3.592 -0.5328  0.8010  0.2829
   27DOPC     N 3589   4.441   6.580   5.708  0.2651  0.1348 -0.7037
   27DOPC   C12 3590   4.476   6.501   5.582  0.1306 -0.7884  0.3173
   27DOPC  H12A 3591   4.395   6.435   5.556 -0.4671 -0.0399  0.2263
   27DOPC  H12B 3592   4.555   6.432   5.605 -1.6132 -3.3288 -0.8749
   27DOPC   C13 3593   4.546   6.688   5.737  0.1022 -1.0563 -0.8113
   27DOPC  H13A 3594   4.523   6.727   5.835  0.4600 -2.7904  0.0003
   27DOPC  H13B 3595   4.647   6.649   5.735  1.0396  1.1556 -3.1629
   27DOPC  H13C 3596   4.553   6.767   5.664  0.7697  0.0957  0.4456
   27DOPC   C14 3597   4.437   6.487   5.826  0.3749  0.8015 -0.4344
   27DOPC  H14A 3598   4.360   6.413   5.812  0.3966  0.6091  0.3739
   27DOPC  H14B 3599   4.523   6.421   5.831 -0.7938 -0.8517 -1.3119
   27DOPC  H14C 3600   4.437   6.537   5.922 -2.7313 -0.1482  0.1724
   27DOPC   C15 3601   4.310   6.640   5.705 -0.3678  0.0678 -0.1567
   27DOPC  H15A 3602   4.232   6.575   5.739  0.0183 -1.1175 -1.4499
   27DOPC  H15B 3603   4.278   6.665   5.605  0.0614 -1.9081 -0.8231
   27DOPC  H15C 3604   4.307   6.728   5.769 -2.4771  1.1720 -1.6642
   27DOPC   C11 3605   4.497   6.586   5.445 -0.0808  0.2605 -0.0839
   27DOPC  H11A 3606   4.593   6.637   5.469  1.1599 -2.2288  0.6071
   27DOPC  H11B 3607   4.520   6.516   5.362  1.8875 -0.6345  1.1277
   27DOPC     P 3608   4.419   6.832   5.428 -0.3329  0.4109 -0.3524
   27DOPC   O13 3609   4.549   6.858   5.497  0.1422 -0.6244  0.1242
   27DOPC   O14 3610   4.292   6.894   5.472  0.4177  0.3725  0.3953
   27DOPC   O12 3611   4.402   6.680   5.416 -0.5498 -0.1022  1.0552
   27DOPC   O11 3612   4.429   6.896   5.284 -0.4575  0.9769  0.2618
   27DOPC    C1 3613   4.363   6.832   5.170  0.3276  0.5111 -0.7046
   27DOPC    HA 3614   4.338   6.905   5.090  0.5033 -0.2255 -1.4411
   27DOPC    HB 3615   4.266   6.784   5.195  1.1829 -0.4572  0.9189
   27DOPC    C2 3616   4.446   6.711   5.104  0.1258 -0.4854  0.0209
   27DOPC    HS 3617   4.420   6.628   5.173 -2.2594  1.4011  1.5386
   27DOPC   O21 3618   4.581   6.753   5.102 -0.8726  0.5129  0.0675
   27DOPC   C21 3619   4.669   6.662   5.133  0.4549 -0.6409  0.5160
   27DOPC   O22 3620   4.651   6.545   5.141 -0.6206 -0.1511  0.1655
   27DOPC   C22 3621   4.804   6.728   5.141 -0.7445 -0.4273  0.1402
   27DOPC   H2R 3622   4.851   6.699   5.237  1.8125  0.4944 -0.7267
   27DOPC   H2S 3623   4.794   6.839   5.134  1.8298 -0.1790 -0.6498
   27DOPC    C3 3624   4.401   6.679   4.961 -0.2598  0.2812  0.3112
   27DOPC    HX 3625   4.422   6.777   4.912 -0.6170  0.0048 -0.4072
   27DOPC    HY 3626   4.292   6.660   4.953  0.1517 -1.7068 -1.1230
   27DOPC   O31 3627   4.475   6.578   4.902  0.2924 -0.1219 -0.0207
   27DOPC   C31 3628   4.433   6.455   4.932  0.1969 -0.2963 -0.9810
   27DOPC   O32 3629   4.338   6.431   5.005  0.6787 -0.0195  0.3743
   27DOPC   C32 3630   4.530   6.348   4.883  0.2464 -0.3727 -0.5964
   27DOPC   H2X 3631   4.551   6.285   4.973  0.6061  1.8108  0.9151
   27DOPC   H2Y 3632   4.464   6.287   4.817  0.5539  0.5068 -1.7286
   27DOPC   C23 3633   4.913   6.697   5.033 -0.5427  0.3937 -0.9594
   27DOPC   H3R 3634   4.940   6.589   5.032 -0.9318  0.2081  1.2954
   27DOPC   H3S 3635   5.010   6.741   5.065 -0.0941 -1.4188  0.3668
   27DOPC   C24 3636   4.862   6.754   4.894 -0.1963  0.0621 -0.2764
   27DOPC   H4R 3637   4.804   6.848   4.905  0.5791  0.6457 -1.0717
   27DOPC   H4S 3638   4.791   6.676   4.859  0.1580 -1.3683  2.0091
   27DOPC   C25 3639   4.989   6.768   4.804  0.2245  0.3872 -0.3514
   27DOPC   H5R 3640   5.082   6.726   4.848  0.2551 -0.0202 -0.7872
   27DOPC   H5S 3641   4.999   6.877   4.787 -1.7339  0.6345 -0.1616
   27DOPC   C26 3642   4.973   6.692   4.673  0.0620 -0.2824  0.1795
   27DOPC   H6R 3643   5.063   6.714   4.612  0.5512 -1.9377  0.2589
   27DOPC   H6S 3644   4.887   6.741   4.622 -2.1822 -3.1967  0.8883
   27DOPC   C27 3645   4.956   6.543   4.673 -0.4064  0.1214  0.1646
   27DOPC   H7R 3646   4.863   6.515   4.728  0.1230 -1.1018  0.4672
   27DOPC   H7S 3647   5.040   6.491   4.724 -1.3430 -0.6785  0.9251
   27DOPC   C28 3648   4.944   6.488   4.532  0.2246  0.0019 -0.2013
   27DOPC   H8R 3649   4.929   6.379   4.540 -1.0272  0.1938  0.2500
   27DOPC   H8S 3650   5.044   6.501   4.486  1.3931 -1.8432  1.6587
   27DOPC   C29 3651   4.830   6.542   4.451 -0.2892  0.6644 -0.8570
   27DOPC   H9R 3652   4.734   6.534   4.506  0.0180 -0.8795 -0.5068
   27DOPC  C210 3653   4.831   6.608   4.340 -0.6922  0.0788  0.5567
   27DOPC  H10R 3654   4.741   6.658   4.300  0.6566  3.8606  1.7534
   27DOPC  C211 3655   4.959   6.616   4.257  0.9775  0.4266 -0.4077
   27DOPC  H11R 3656   5.031   6.533   4.264  1.7681  1.1746  0.6260
   27DOPC  H11S 3657   5.028   6.700   4.280  1.6857 -0.5076  1.0616
   27DOPC  C212 3658   4.928   6.630   4.104  0.8009  0.2299 -0.0506
   27DOPC  H12R 3659   5.018   6.653   4.043  0.4750 -1.5006 -1.2748
   27DOPC  H12S 3660   4.855   6.712   4.089  0.0649 -0.6514 -1.5260
   27DOPC  C213 3661   4.857   6.508   4.040 -0.0889  0.0518  0.1143
   27DOPC  H13R 3662   4.760   6.495   4.093 -0.2958 -0.4189 -0.3767
   27DOPC  H13S 3663   4.921   6.419   4.057 -2.1174 -1.3956  0.4538
   27DOPC  C214 3664   4.843   6.512   3.887  0.0281  0.1310  0.6437
   27DOPC  H14R 3665   4.940   6.501   3.834 -1.0240 -0.8189 -1.1777
   27DOPC  H14S 3666   4.773   6.588   3.844  2.5404  0.8061 -2.6979
   27DOPC  C215 3667   4.785   6.372   3.844  0.5164  0.1268 -0.3563
   27DOPC  H15R 3668   4.682   6.358   3.883  0.6407 -0.4178 -0.2168
   27DOPC  H15S 3669   4.841   6.289   3.891  1.1171 -1.3289 -3.4074
   27DOPC  C216 3670   4.779   6.359   3.683  0.2395 -0.8450  0.2668
   27DOPC  H16R 3671   4.879   6.379   3.639 -0.3469 -0.6022 -0.9888
   27DOPC  H16S 3672   4.701   6.429   3.646 -0.4355 -1.1855  1.0126
   27DOPC  C217 3673   4.723   6.224   3.635  0.7139  0.0227  0.9545
   27DOPC  H17R 3674   4.788   6.148   3.685  0.0554 -0.5153  1.0111
   27DOPC  H17S 3675   4.754   6.216   3.529 -0.0133  1.0708  0.6572
   27DOPC  C218 3676   4.575   6.198   3.650 -0.2106 -0.1356 -0.9062
   27DOPC  H18R 3677   4.522   6.269   3.582 -0.1144  1.0232  0.1992
   27DOPC  H18S 3678   4.544   6.215   3.755  0.2756 -1.3437 -0.5548
   27DOPC  H18T 3679   4.543   6.094   3.632 -2.9983  0.4483  0.2796
   27DOPC   C33 3680   4.655   6.399   4.803  0.3705 -0.5324  0.2148
   27DOPC   H3X 3681   4.728   6.452   4.868 -0.0564  1.3849 -0.7841
   27DOPC   H3Y 3682   4.624   6.469   4.722  1.0001 -3.6629 -2.9889
   27DOPC   C34 3683   4.722   6.277   4.735  0.3413  0.9566 -0.3547
   27DOPC   H4X 3684   4.706   6.193   4.806 -0.0092  1.4853  0.1988
   27DOPC   H4Y 3685   4.828   6.294   4.706  0.4778  1.8406  0.5930
   27DOPC   C35 3686   4.660   6.242   4.599  0.2877  0.0620  1.0471
   27DOPC   H5X 3687   4.728   6.270   4.516 -0.2541 -0.6110  0.3508
   27DOPC   H5Y 3688   4.562   6.293   4.586 -1.1288 -2.7952 -0.8694
   27DOPC   C36 3689   4.628   6.095   4.576 -0.1941 -0.8471 -0.1300
   27DOPC   H6X 3690   4.543   6.058   4.637  0.5357 -1.4418  0.5508
   27DOPC   H6Y 3691   4.607   6.089   4.467 -0.0528  0.9144 -0.2846
   27DOPC   C37 3692   4.748   5.999   4.592  0.2276  0.2735  0.2051
   27DOPC   H7X 3693   4.788   6.007   4.696 -0.0021 -1.4902  0.4562
   27DOPC   H7Y 3694   4.710   5.896   4.577  1.7989 -0.6007  1.7703
   27DOPC   C38 3695   4.853   6.026   4.489 -0.8976  0.2023  0.4436
   27DOPC   H8X 3696   4.899   6.125   4.508  1.7738 -0.2555 -2.8096
   27DOPC   H8Y 3697   4.821   6.028   4.383  3.7973 -1.4762 -1.2569
   27DOPC   C39 3698   4.976   5.932   4.489 -0.1419 -0.3518 -0.6635
   27DOPC   H9X 3699   5.010   5.902   4.589  0.6923 -0.4985 -0.9827
   27DOPC  C310 3700   5.032   5.878   4.382 -1.1670 -0.8904  0.1496
   27DOPC  H10X 3701   5.122   5.816   4.398 -0.2682  0.5007  0.7081
   27DOPC  C311 3702   4.998   5.906   4.239  0.2171  0.9668 -0.3007
   27DOPC  H11X 3703   4.938   5.997   4.218  0.8756  1.4218 -0.2716
   27DOPC  H11Y 3704   4.939   5.820   4.203 -2.0380  0.8662  3.1903
   27DOPC  C312 3705   5.122   5.935   4.150 -0.4739 -0.0970  0.2751
   27DOPC  H12X 3706   5.190   5.849   4.167  0.5157  0.2856 -1.4709
   27DOPC  H12Y 3707   5.184   6.020   4.186  2.3163 -1.5798 -0.7039
   27DOPC  C313 3708   5.078   5.956   4.007  0.4857  0.1616  0.0904
   27DOPC  H13X 3709   5.003   5.888   3.961 -0.0485  1.1300 -0.5021
   27DOPC  H13Y 3710   5.031   6.057   4.009 -0.9867 -0.5093  0.4644
   27DOPC  C314 3711   5.194   5.962   3.911  0.1657 -0.4419 -0.5254
   27DOPC  H14X 3712   5.256   6.049   3.943 -1.2117  0.2494  0.3702
   27DOPC  H14Y 3713   5.256   5.870   3.914  1.7790  0.5885 -0.7887
   27DOPC  C315 3714   5.161   5.967   3.759 -0.4010  0.1846  0.3658
   27DOPC  H15X 3715   5.080   5.891   3.747 -1.4268  1.2465  0.4105
   27DOPC  H15Y 3716   5.249   5.933   3.700 -0.0822 -1.1341  1.5470
   27DOPC  C316 3717   5.105   6.102   3.709  0.9663  0.3775 -0.1940
   27DOPC  H16X 3718   5.088   6.090   3.600 -0.7719  0.6962  0.0234
   27DOPC  H16Y 3719   5.013   6.129   3.765 -0.6391 -0.2429 -2.4223
   27DOPC  C317 3720   5.201   6.224   3.708 -0.4502  0.9353  0.3935
   27DOPC  H17X 3721   5.221   6.246   3.816 -0.1195 -0.9405  0.7525
   27DOPC  H17Y 3722   5.292   6.185   3.659 -1.7167 -0.7078 -0.7559
   27DOPC  C318 3723   5.145   6.342   3.626  0.5544  0.5121  0.1543
   27DOPC  H18X 3724   5.229   6.387   3.569  0.5967 -0.8779 -0.9394
   27DOPC  H18Y 3725   5.077   6.306   3.546 -0.2728 -3.3096  2.3191
   27DOPC  H18Z 3726   5.091   6.417   3.687  0.1063 -0.1272  0.5558
   28DOPC     N 3727   5.472   6.703   5.521 -0.2366  0.0436 -0.1400
   28DOPC   C12 3728   5.524   6.691   5.384  0.3990 -0.5304  0.7282
   28DOPC  H12A 3729   5.458   6.635   5.319  1.8921 -0.7565 -0.6484
   28DOPC  H12B 3730   5.612   6.629   5.390  0.1872 -0.9289 -0.0973
   28DOPC   C13 3731   5.426   6.565   5.574  0.0748  0.3387 -0.3409
   28DOPC  H13A 3732   5.408   6.567   5.680 -1.5599 -1.4138 -0.5422
   28DOPC  H13B 3733   5.331   6.548   5.526 -1.1538  1.9633  1.3949
   28DOPC  H13C 3734   5.498   6.489   5.546 -0.7371  0.2091 -2.2202
   28DOPC   C14 3735   5.363   6.804   5.536 -0.4060  0.0371 -0.4013
   28DOPC  H14A 3736   5.276   6.770   5.482 -0.4122 -2.0979  0.8614
   28DOPC  H14B 3737   5.344   6.813   5.642 -1.0288 -0.3573 -0.4733
   28DOPC  H14C 3738   5.388   6.906   5.508  1.3379 -0.0572  0.6583
   28DOPC   C15 3739   5.589   6.740   5.611 -0.1480 -0.0968  0.1232
   28DOPC  H15A 3740   5.622   6.837   5.577  1.6924 -1.7373 -3.2897
   28DOPC  H15B 3741   5.662   6.661   5.599  0.1293  0.2377 -0.4514
   28DOPC  H15C 3742   5.561   6.752   5.714  0.3883 -1.7238  0.4890
   28DOPC   C11 3743   5.595   6.819   5.321 -0.0271  0.0027 -0.2916
   28DOPC  H11A 3744   5.577   6.803   5.213  0.8275  0.0989 -0.4488
   28DOPC  H11B 3745   5.538   6.913   5.339  0.1833 -0.2936  2.4959
   28DOPC     P 3746   5.794   6.980   5.318  0.2233  0.0619  0.2241
   28DOPC   O13 3747   5.942   6.968   5.300 -0.1488 -0.3012 -0.0776
   28DOPC   O14 3748   5.741   7.089   5.402  0.0793 -0.0111  0.4009
   28DOPC   O12 3749   5.728   6.838   5.359 -0.0312 -0.0709  0.5070
   28DOPC   O11 3750   5.729   7.015   5.181 -0.4739  0.2771  0.2090
   28DOPC    C1 3751   5.759   6.928   5.066  0.4616 -0.0609 -0.5172
   28DOPC    HA 3752   5.663   6.921   5.010 -1.1641  2.8064  1.5877
   28DOPC    HB 3753   5.788   6.825   5.096  1.3991  0.2357 -0.3962
   28DOPC    C2 3754   5.869   6.994   4.967 -0.1162 -0.1223  0.4069
   28DOPC    HS 3755   5.946   7.040   5.032 -0.2883  0.7801 -0.0153
   28DOPC   O21 3756   5.803   7.099   4.885  0.1865 -0.0164 -0.2791
   28DOPC   C21 3757   5.883   7.195   4.847  0.2079  0.7367 -0.4970
   28DOPC   O22 3758   6.000   7.202   4.871 -0.3753 -0.1489  0.6744
   28DOPC   C22 3759   5.809   7.298   4.768 -0.1033  0.0381  0.2347
   28DOPC   H2R 3760   5.782   7.242   4.676  0.5101  0.0303  0.0533
   28DOPC   H2S 3761   5.888   7.366   4.729 -1.9066  1.3535 -1.3485
   28DOPC    C3 3762   5.933   6.873   4.884  0.1157 -0.0067 -1.0104
   28DOPC    HX 3763   5.849   6.809   4.850  1.1605 -0.8680 -2.0844
   28DOPC    HY 3764   6.002   6.814   4.949  0.1188  1.5411  0.4634
   28DOPC   O31 3765   5.998   6.922   4.767  0.1092 -0.0529 -0.6785
   28DOPC   C31 3766   6.141   6.923   4.761  0.7816 -0.0620 -0.3984
   28DOPC   O32 3767   6.204   6.865   4.847 -0.5372 -0.3740  0.4684
   28DOPC   C32 3768   6.201   7.001   4.647  0.1398 -0.0125  0.4921
   28DOPC   H2X 3769   6.118   7.018   4.575 -0.2472 -0.6804  0.7736
   28DOPC   H2Y 3770   6.235   7.104   4.670 -0.5804  0.6029 -0.9907
   28DOPC   C23 3771   5.691   7.357   4.838  0.2019 -0.0743 -0.7972
   28DOPC   H3R 3772   5.726   7.383   4.940 -0.2099  0.6616 -0.8354
   28DOPC   H3S 3773   5.616   7.276   4.845 -1.8620  1.8098  0.4461
   28DOPC   C24 3774   5.636   7.486   4.773  0.4025  0.0271  0.2331
   28DOPC   H4R 3775   5.689   7.574   4.815 -0.3728  1.6497 -2.0435
   28DOPC   H4S 3776   5.527   7.481   4.790 -0.0395  1.6320 -1.7393
   28DOPC   C25 3777   5.663   7.488   4.624 -0.6540 -0.4655 -1.1114
   28DOPC   H5R 3778   5.622   7.393   4.583  0.6093 -1.4793 -0.1116
   28DOPC   H5S 3779   5.771   7.497   4.600 -0.6185  1.7325 -0.3309
   28DOPC   C26 3780   5.587   7.599   4.549  0.2513  0.2119 -0.7056
   28DOPC   H6R 3781   5.578   7.569   4.442 -0.7763  0.2779 -0.6492
   28DOPC   H6S 3782   5.643   7.695   4.558 -0.4545  0.5160  0.5798
   28DOPC   C27 3783   5.439   7.612   4.596 -0.3902 -0.3632  0.6537
   28DOPC   H7R 3784   5.440   7.677   4.686  0.9934 -0.2877  0.5972
   28DOPC   H7S 3785   5.405   7.508   4.615 -0.0046 -0.4829  0.6954
   28DOPC   C28 3786   5.357   7.669   4.487 -1.1253  0.0255  0.4655
   28DOPC   H8R 3787   5.364   7.597   4.403 -1.6447  1.7515 -1.1244
   28DOPC   H8S 3788   5.397   7.767   4.452  0.6552 -0.9266 -0.2815
   28DOPC   C29 3789   5.211   7.680   4.524 -0.0151  0.7534 -0.2456
   28DOPC   H9R 3790   5.185   7.667   4.630 -3.0056  2.4480 -0.6702
   28DOPC  C210 3791   5.110   7.695   4.436  0.5509  0.8451 -0.2177
   28DOPC  H10R 3792   5.002   7.692   4.459 -0.2190  1.4931 -3.2935
   28DOPC  C211 3793   5.129   7.708   4.290  0.3614  0.4509 -0.2913
   28DOPC  H11R 3794   5.237   7.701   4.269  0.1715 -1.0272 -0.9039
   28DOPC  H11S 3795   5.097   7.806   4.248 -0.8049 -0.4451 -1.5929
   28DOPC  C212 3796   5.059   7.589   4.219  0.3940  0.0101  0.0620
   28DOPC  H12R 3797   5.103   7.498   4.263  0.8336  0.8257  1.3489
   28DOPC  H12S 3798   5.086   7.592   4.111  0.0968  1.5896  0.0008
   28DOPC  C213 3799   4.907   7.576   4.242  0.0494 -0.1924 -0.2364
   28DOPC  H13R 3800   4.875   7.606   4.344 -1.8262 -0.5572 -0.6656
   28DOPC  H13S 3801   4.877   7.469   4.235  1.1617 -0.5134 -0.2739
   28DOPC  C214 3802   4.816   7.663   4.150  0.8970 -0.7961  0.0562
   28DOPC  H14R 3803   4.859   7.654   4.047 -0.8905 -1.3481 -0.6846
   28DOPC  H14S 3804   4.827   7.770   4.178 -2.4785  0.0618 -1.3919
   28DOPC  C215 3805   4.666   7.622   4.149 -0.2621  0.1181 -0.3017
   28DOPC  H15R 3806   4.606   7.642   4.241 -0.0520 -3.3240  0.7231
   28DOPC  H15S 3807   4.663   7.511   4.138  0.3844  0.2403 -2.0122
   28DOPC  C216 3808   4.606   7.679   4.020 -0.4926  0.4866  0.7834
   28DOPC  H16R 3809   4.670   7.656   3.933 -1.4650 -0.3661  0.2706
   28DOPC  H16S 3810   4.611   7.790   4.025  2.5442  0.3670  3.3800
   28DOPC  C217 3811   4.466   7.629   3.990  0.7711  0.0791 -0.5731
   28DOPC  H17R 3812   4.419   7.710   3.932  0.5615 -0.2404 -0.8505
   28DOPC  H17S 3813   4.404   7.616   4.081 -0.4607  0.9258 -1.2760
   28DOPC  C218 3814   4.475   7.508   3.902  0.2490  0.5001 -0.6649
   28DOPC  H18R 3815   4.516   7.420   3.957  0.4352  0.8614 -0.2172
   28DOPC  H18S 3816   4.538   7.535   3.815  0.7437 -0.3838 -0.5933
   28DOPC  H18T 3817   4.374   7.477   3.868  0.0372 -0.2431  0.5631
   28DOPC   C33 3818   6.311   6.922   4.577  0.3553  0.1345 -0.0907
   28DOPC   H3X 3819   6.266   6.823   4.552 -0.1335  0.1673  0.6256
   28DOPC   H3Y 3820   6.401   6.906   4.639 -0.9079 -2.4153  1.2564
   28DOPC   C34 3821   6.373   6.989   4.452  0.0641  0.1178  0.0363
   28DOPC   H4X 3822   6.465   6.934   4.423  1.0055  0.2064  2.6263
   28DOPC   H4Y 3823   6.395   7.092   4.489 -0.7906  0.5728 -0.6888
   28DOPC   C35 3824   6.289   7.011   4.328  0.1822  0.0789 -0.1727
   28DOPC   H5X 3825   6.192   7.051   4.365 -0.5570 -0.5206 -1.3879
   28DOPC   H5Y 3826   6.267   6.917   4.274 -0.6187 -0.2773  0.7501
   28DOPC   C36 3827   6.362   7.115   4.240  0.7996  0.5801 -0.3457
   28DOPC   H6X 3828   6.315   7.215   4.253 -0.5383  0.1382 -1.4242
   28DOPC   H6Y 3829   6.468   7.129   4.268  0.7728  2.5308 -1.0382
   28DOPC   C37 3830   6.366   7.076   4.091 -0.2256  0.1090  0.1451
   28DOPC   H7X 3831   6.429   7.152   4.041  0.1750 -1.4546 -1.8130
   28DOPC   H7Y 3832   6.424   6.982   4.083 -0.9011 -0.1758 -1.9757
   28DOPC   C38 3833   6.229   7.068   4.018  0.4356  0.1527 -0.0095
   28DOPC   H8X 3834   6.200   7.170   3.987  1.3125 -0.0512 -1.6213
   28DOPC   H8Y 3835   6.159   7.027   4.094  2.9192 -2.5136  1.0310
   28DOPC   C39 3836   6.224   6.979   3.894 -0.5670  0.0601 -0.0737
   28DOPC   H9X 3837   6.252   6.873   3.904  2.1240  0.6145 -0.9350
   28DOPC  C310 3838   6.238   7.020   3.767  0.3786  0.0372  0.6791
   28DOPC  H10X 3839   6.268   6.941   3.697  0.6743 -0.2031  1.0733
   28DOPC  C311 3840   6.221   7.152   3.703 -0.1641 -0.4999 -0.1678
   28DOPC  H11X 3841   6.296   7.183   3.626 -0.3428 -0.1970 -0.2182
   28DOPC  H11Y 3842   6.214   7.228   3.784  0.3151  0.9063 -1.3919
   28DOPC  C312 3843   6.085   7.147   3.625 -0.3727  0.6167  0.0016
   28DOPC  H12X 3844   6.001   7.148   3.698  0.4985  1.2683  1.0180
   28DOPC  H12Y 3845   6.072   7.053   3.567  0.8752  0.4841 -0.0890
   28DOPC  C313 3846   6.072   7.257   3.517  0.9693 -0.1661  0.1623
   28DOPC  H13X 3847   6.068   7.359   3.561 -1.0807  0.1082 -0.5683
   28DOPC  H13Y 3848   6.162   7.242   3.454  1.5347  0.2076  0.8683
   28DOPC  C314 3849   5.937   7.246   3.449  0.5303  0.0520  0.3909
   28DOPC  H14X 3850   5.931   7.144   3.407  3.5193  0.8528 -2.3321
   28DOPC  H14Y 3851   5.851   7.264   3.518  1.0769 -0.8679  1.3379
   28DOPC  C315 3852   5.917   7.338   3.322 -0.0902  0.0576  0.1494
   28DOPC  H15X 3853   6.013   7.323   3.269  0.3039 -2.8887  1.4903
   28DOPC  H15Y 3854   5.908   7.444   3.355 -0.3280  0.0910 -0.0226
   28DOPC  C316 3855   5.793   7.312   3.240  0.1673  0.2283  0.2872
   28DOPC  H16X 3856   5.773   7.206   3.213 -0.1740 -0.2514  2.2876
   28DOPC  H16Y 3857   5.706   7.337   3.304 -0.9315 -1.2367 -0.5836
   28DOPC  C317 3858   5.780   7.398   3.117  0.2794  0.2190 -0.2092
   28DOPC  H17X 3859   5.762   7.506   3.141 -1.1044 -0.4722  2.1969
   28DOPC  H17Y 3860   5.882   7.408   3.075  1.2528 -0.4865  1.8821
   28DOPC  C318 3861   5.678   7.355   3.012 -0.0278 -0.3687  0.8628
   28DOPC  H18X 3862   5.582   7.405   3.037 -0.1250 -1.2548  2.3434
   28DOPC  H18Y 3863   5.709   7.387   2.910 -1.4556  0.1961  0.5774
   28DOPC  H18Z 3864   5.661   7.245   3.012 -1.3906 -0.1818  0.2133
   29DOPC     N 3865   2.858   4.337   5.167 -0.1409  0.3799 -0.5050
   29DOPC   C12 3866   2.978   4.381   5.091  0.0484 -0.7754  0.2899
   29DOPC  H12A 3867   2.973   4.489   5.085  2.7221 -0.6343 -1.1807
   29DOPC  H12B 3868   2.971   4.353   4.987 -2.3837  0.2534  0.0994
   29DOPC   C13 3869   2.846   4.387   5.306 -0.7657 -0.1910  0.0789
   29DOPC  H13A 3870   2.850   4.495   5.310 -1.8978 -0.1543  2.1316
   29DOPC  H13B 3871   2.750   4.364   5.351 -0.4888 -0.8811  0.3314
   29DOPC  H13C 3872   2.919   4.342   5.371  0.7332 -0.9014 -2.0079
   29DOPC   C14 3873   2.852   4.184   5.159 -0.1524  0.3898 -0.4142
   29DOPC  H14A 3874   2.859   4.139   5.061  1.8238 -0.4865  0.0702
   29DOPC  H14B 3875   2.930   4.142   5.221 -1.7060 -1.7217  0.2518
   29DOPC  H14C 3876   2.761   4.144   5.202  0.0683  0.2271 -0.0882
   29DOPC   C15 3877   2.734   4.385   5.096 -0.0523  0.5433  0.0078
   29DOPC  H15A 3878   2.652   4.350   5.158 -0.1101  1.7205  0.6226
   29DOPC  H15B 3879   2.732   4.341   4.998  0.0408  0.7882 -0.1036
   29DOPC  H15C 3880   2.744   4.491   5.082  1.9933  1.0536  3.7976
   29DOPC   C11 3881   3.113   4.354   5.149  0.2056  0.1220  0.0198
   29DOPC  H11A 3882   3.181   4.404   5.077  0.1773 -0.7301 -0.6164
   29DOPC  H11B 3883   3.123   4.412   5.243  1.1789  2.3549 -1.3718
   29DOPC     P 3884   3.268   4.141   5.138 -0.4014  0.0840 -0.0695
   29DOPC   O13 3885   3.240   3.995   5.121 -0.1364 -0.0678  0.0337
   29DOPC   O14 3886   3.369   4.186   5.237  0.0675  0.3698 -0.4262
   29DOPC   O12 3887   3.129   4.212   5.164 -0.0235  0.2842 -0.1718
   29DOPC   O11 3888   3.316   4.192   4.993 -0.0669 -0.3826 -0.0250
   29DOPC    C1 3889   3.224   4.213   4.888 -0.9678  0.3227 -0.3330
   29DOPC    HA 3890   3.212   4.323   4.874 -0.1791  0.3524 -0.8157
   29DOPC    HB 3891   3.127   4.162   4.910 -0.5066 -0.1119  0.7772
   29DOPC    C2 3892   3.275   4.144   4.760  0.0822  0.0364 -0.0348
   29DOPC    HS 3893   3.308   4.042   4.790  1.3636  0.4965  0.1696
   29DOPC   O21 3894   3.373   4.220   4.691  0.4253 -0.5154 -0.4465
   29DOPC   C21 3895   3.497   4.156   4.681  0.0828 -0.4789 -0.0710
   29DOPC   O22 3896   3.519   4.048   4.715 -0.4353  0.2719  0.3464
   29DOPC   C22 3897   3.593   4.257   4.627 -0.2848 -0.4194  0.0223
   29DOPC   H2R 3898   3.691   4.213   4.601 -0.3496 -0.5095 -0.0709
   29DOPC   H2S 3899   3.591   4.334   4.707 -0.0537 -0.9561  0.5559
   29DOPC    C3 3900   3.155   4.122   4.666  0.5301  0.3546 -0.1268
   29DOPC    HX 3901   3.093   4.213   4.651 -0.0683  0.2056  1.3246
   29DOPC    HY 3902   3.087   4.061   4.729  2.6552 -2.0144  0.0104
   29DOPC   O31 3903   3.186   4.062   4.540 -0.0278  0.3408 -0.0063
   29DOPC   C31 3904   3.222   3.933   4.533 -0.1713 -0.4927 -0.7469
   29DOPC   O32 3905   3.265   3.867   4.626 -0.2913 -0.0091  0.0084
   29DOPC   C32 3906   3.206   3.878   4.392 -0.2482  0.1197 -0.0563
   29DOPC   H2X 3907   3.201   3.768   4.407  0.9959  0.3824  3.2784
   29DOPC   H2Y 3908   3.115   3.918   4.343  0.0049 -0.9483 -1.4590
   29DOPC   C23 3909   3.545   4.326   4.502  0.9236 -0.1584  0.7990
   29DOPC   H3R 3910   3.584   4.427   4.479 -0.6382  0.5033  0.9849
   29DOPC   H3S 3911   3.437   4.351   4.503  1.0930  0.5945  1.3451
   29DOPC   C24 3912   3.578   4.253   4.364 -0.0811 -0.1177  0.8729
   29DOPC   H4R 3913   3.502   4.292   4.292  1.4190 -0.1552 -0.7878
   29DOPC   H4S 3914   3.562   4.143   4.370 -0.5458 -0.1061  0.0033
   29DOPC   C25 3915   3.709   4.294   4.296  0.2940 -0.1945  0.1485
   29DOPC   H5R 3916   3.795   4.249   4.351 -0.6498  2.4099  4.1327
   29DOPC   H5S 3917   3.731   4.403   4.298  0.7906 -0.2618 -0.9516
   29DOPC   C26 3918   3.691   4.266   4.143 -1.0618  1.4306  0.0999
   29DOPC   H6R 3919   3.637   4.351   4.096 -0.8995  1.4175 -0.1126
   29DOPC   H6S 3920   3.636   4.171   4.130  2.0506 -0.3511 -1.1169
   29DOPC   C27 3921   3.818   4.242   4.063  0.4382  0.2968 -0.3285
   29DOPC   H7R 3922   3.877   4.173   4.126 -0.1685 -0.7605 -0.8945
   29DOPC   H7S 3923   3.874   4.338   4.053 -0.5913  1.3870  3.0456
   29DOPC   C28 3924   3.799   4.190   3.925  0.7293  0.1995  0.1420
   29DOPC   H8R 3925   3.751   4.275   3.872  1.4443  2.4094  2.7797
   29DOPC   H8S 3926   3.727   4.105   3.923 -1.3249  1.6626  3.5469
   29DOPC   C29 3927   3.932   4.159   3.863 -0.5667  0.0755 -0.4656
   29DOPC   H9R 3928   4.004   4.111   3.931 -0.6798 -0.8138 -0.9565
   29DOPC  C210 3929   3.965   4.178   3.732  0.4339 -0.4769  0.3170
   29DOPC  H10R 3930   4.060   4.140   3.692  0.1486 -0.9457  0.0612
   29DOPC  C211 3931   3.876   4.243   3.626  0.0624 -0.2899 -0.0293
   29DOPC  H11R 3932   3.898   4.351   3.619 -2.5904  0.2563 -1.9361
   29DOPC  H11S 3933   3.766   4.233   3.640  0.1336 -1.3562 -0.1046
   29DOPC  C212 3934   3.903   4.178   3.484 -0.2111  1.1365 -1.0577
   29DOPC  H12R 3935   4.014   4.183   3.475 -0.1201  0.5752 -0.3268
   29DOPC  H12S 3936   3.853   4.251   3.416 -0.7721  1.7019 -0.0653
   29DOPC  C213 3937   3.854   4.036   3.461  0.5682 -0.1003 -0.0855
   29DOPC  H13R 3938   3.751   4.021   3.502 -0.2668 -0.5464 -2.2267
   29DOPC  H13S 3939   3.914   3.966   3.522  1.1222 -1.8877 -2.5825
   29DOPC  C214 3940   3.867   3.998   3.314 -0.4956 -0.6843  0.9011
   29DOPC  H14R 3941   3.970   4.022   3.280 -0.8239  0.3154  0.5738
   29DOPC  H14S 3942   3.796   4.061   3.256  0.6497 -0.8820 -0.7725
   29DOPC  C215 3943   3.828   3.853   3.286 -0.4016 -0.0388  0.7050
   29DOPC  H15R 3944   3.718   3.848   3.305 -0.6285  0.3077 -0.4286
   29DOPC  H15S 3945   3.885   3.789   3.358  1.0898 -1.4237 -1.5751
   29DOPC  C216 3946   3.843   3.788   3.149  0.0670  0.5945 -0.6465
   29DOPC  H16R 3947   3.818   3.680   3.156 -0.4807  0.7878  0.6103
   29DOPC  H16S 3948   3.944   3.798   3.104 -0.8433  0.4819 -2.8605
   29DOPC  C217 3949   3.745   3.853   3.043 -0.4771 -0.1367  0.2153
   29DOPC  H17R 3950   3.790   3.943   2.998  3.2498 -1.9597 -0.1121
   29DOPC  H17S 3951   3.644   3.869   3.087 -0.6444  1.5291 -0.7209
   29DOPC  C218 3952   3.733   3.759   2.925 -0.0353 -0.4308  0.2029
   29DOPC  H18R 3953   3.686   3.664   2.958 -3.1276  0.2401 -1.8735
   29DOPC  H18S 3954   3.837   3.741   2.890 -0.1493 -0.3975 -0.1569
   29DOPC  H18T 3955   3.675   3.800   2.840  1.2664  0.6180 -0.2129
   29DOPC   C33 3956   3.328   3.936   4.314 -0.0063  0.6239 -0.1780
   29DOPC   H3X 3957   3.418   3.933   4.379 -1.0058  0.9502  1.2783
   29DOPC   H3Y 3958   3.306   4.042   4.287 -0.7261  0.9798  1.6683
   29DOPC   C34 3959   3.347   3.845   4.191  0.3956 -0.3520  0.3648
   29DOPC   H4X 3960   3.390   3.751   4.230  0.8700 -0.2764  0.0306
   29DOPC   H4Y 3961   3.430   3.882   4.128 -0.0090 -2.0107 -1.2142
   29DOPC   C35 3962   3.221   3.817   4.107  0.5378  0.7422 -0.1823
   29DOPC   H5X 3963   3.147   3.762   4.170 -1.6382  0.8720 -2.4512
   29DOPC   H5Y 3964   3.253   3.741   4.032 -1.4138 -0.4528  0.0980
   29DOPC   C36 3965   3.151   3.938   4.043  0.6292  0.4047 -0.4192
   29DOPC   H6X 3966   3.119   4.006   4.125 -0.8098  1.7751 -2.0543
   29DOPC   H6Y 3967   3.215   3.991   3.970  0.9476  0.5751 -0.0188
   29DOPC   C37 3968   3.026   3.883   3.976 -0.0362  0.8069  0.2284
   29DOPC   H7X 3969   3.057   3.802   3.906  2.6418  0.6278  1.5039
   29DOPC   H7Y 3970   2.958   3.856   4.060 -1.4916  0.1490 -1.1036
   29DOPC   C38 3971   2.945   3.996   3.900 -0.3830 -0.0161  0.1146
   29DOPC   H8X 3972   2.854   3.945   3.861  0.5095 -0.1114 -1.9213
   29DOPC   H8Y 3973   3.006   4.032   3.815 -1.3783  0.9769 -0.2066
   29DOPC   C39 3974   2.901   4.112   3.993  0.8063  0.5921 -0.7030
   29DOPC   H9X 3975   2.902   4.093   4.101 -0.6055  0.0821 -0.7517
   29DOPC  C310 3976   2.863   4.235   3.951 -0.1337 -0.5665 -0.2787
   29DOPC  H10X 3977   2.814   4.302   4.023  3.0792 -0.1044  1.6895
   29DOPC  C311 3978   2.848   4.291   3.812 -0.3179  0.7658  0.1851
   29DOPC  H11X 3979   2.881   4.218   3.735 -0.3544 -1.7382  2.3744
   29DOPC  H11Y 3980   2.909   4.383   3.807  1.3125 -0.3196 -0.8714
   29DOPC  C312 3981   2.702   4.333   3.788 -0.4130  0.0739 -0.3226
   29DOPC  H12X 3982   2.706   4.385   3.690 -0.0247 -0.4412 -0.5907
   29DOPC  H12Y 3983   2.668   4.414   3.856 -0.2410 -1.8325  2.1998
   29DOPC  C313 3984   2.598   4.214   3.775  0.2320 -0.0399 -0.3554
   29DOPC  H13X 3985   2.630   4.140   3.700  2.5639  0.4822  0.0613
   29DOPC  H13Y 3986   2.592   4.158   3.870  1.3008  1.2463  0.5014
   29DOPC  C314 3987   2.453   4.255   3.735  0.6133 -0.8572  0.1734
   29DOPC  H14X 3988   2.431   4.346   3.795 -0.1405 -1.5903  1.0324
   29DOPC  H14Y 3989   2.451   4.283   3.627 -1.3312  0.2515  0.4601
   29DOPC  C315 3990   2.342   4.149   3.757 -0.3108  0.7503  0.2273
   29DOPC  H15X 3991   2.336   4.152   3.868  0.2944 -0.0175  0.2917
   29DOPC  H15Y 3992   2.393   4.050   3.745  1.4554  1.3622  2.0578
   29DOPC  C316 3993   2.207   4.174   3.701  0.3883 -0.4975  0.0630
   29DOPC  H16X 3994   2.177   4.275   3.736  0.7430 -0.9006  1.5856
   29DOPC  H16Y 3995   2.223   4.195   3.593  0.5206 -1.2888 -0.0766
   29DOPC  C317 3996   2.105   4.067   3.730  0.1303 -0.0284 -0.2176
   29DOPC  H17X 3997   2.146   3.966   3.707  0.6761 -0.0260  0.6863
   29DOPC  H17Y 3998   2.096   4.056   3.841 -1.8494  1.0849 -0.2035
   29DOPC  C318 3999   1.964   4.077   3.672 -0.0641 -0.2195  0.5183
   29DOPC  H18X 4000   1.920   4.174   3.702 -0.6717  0.3050 -1.9278
   29DOPC  H18Y 4001   1.964   4.081   3.561 -2.4137 -0.0473  0.4755
   29DOPC  H18Z 4002   1.905   3.986   3.700  1.8542 -1.5631  0.4126
   30DOPC     N 4003   5.438   3.833   5.644 -0.2099 -0.3957  0.1336
   30DOPC   C12 4004   5.487   3.719   5.732 -0.2334 -0.1478  0.2034
   30DOPC  H12A 4005   5.430   3.728   5.823 -0.2017  1.8404  0.0630
   30DOPC  H12B 4006   5.594   3.722   5.749 -0.3715  2.5019  1.1182
   30DOPC   C13 4007   5.488   3.813   5.503 -0.0155 -0.0573 -0.7317
   30DOPC  H13A 4008   5.445   3.726   5.457 -1.5544 -0.2576  0.9813
   30DOPC  H13B 4009   5.452   3.885   5.430 -1.1490  0.8518  0.6808
   30DOPC  H13C 4010   5.596   3.811   5.510 -0.1249 -0.9128  1.6846
   30DOPC   C14 4011   5.477   3.969   5.701 -0.5555 -0.3283 -0.5713
   30DOPC  H14A 4012   5.442   3.975   5.803 -0.2316  0.5353 -0.5033
   30DOPC  H14B 4013   5.584   3.978   5.715 -0.6446  1.6523 -0.8927
   30DOPC  H14C 4014   5.434   4.052   5.648 -0.4655  0.0792 -0.0125
   30DOPC   C15 4015   5.290   3.825   5.639  0.3325 -0.4387  0.2989
   30DOPC  H15A 4016   5.253   3.734   5.592  0.0961  0.4018 -1.2070
   30DOPC  H15B 4017   5.249   3.892   5.565 -0.4917  0.1663  1.2879
   30DOPC  H15C 4018   5.249   3.853   5.735 -2.4036  0.1385 -0.9271
   30DOPC   C11 4019   5.443   3.579   5.680  0.2908  0.8724  0.5743
   30DOPC  H11A 4020   5.335   3.585   5.655  0.2488  1.4790  0.8773
   30DOPC  H11B 4021   5.494   3.556   5.584 -0.7072 -1.7976  0.5932
   30DOPC     P 4022   5.460   3.325   5.727  0.3365  0.0053  0.0777
   30DOPC   O13 4023   5.370   3.258   5.824 -0.6369  0.2115 -0.0914
   30DOPC   O14 4024   5.596   3.269   5.718  0.4785 -0.4660 -0.2048
   30DOPC   O12 4025   5.476   3.474   5.773 -0.2413 -0.2672 -0.6046
   30DOPC   O11 4026   5.395   3.335   5.582  0.0389  0.3850 -0.6725
   30DOPC    C1 4027   5.255   3.325   5.567  0.4866  0.3930  0.3551
   30DOPC    HA 4028   5.226   3.380   5.475  0.4805 -1.4254 -0.7917
   30DOPC    HB 4029   5.199   3.375   5.648  1.2508 -0.2954  1.3369
   30DOPC    C2 4030   5.206   3.175   5.545  0.0506 -0.7079  0.3700
   30DOPC    HS 4031   5.232   3.126   5.641  0.3173 -0.4741  0.4194
   30DOPC   O21 4032   5.277   3.121   5.431  0.1988  0.2537 -0.5847
   30DOPC   C21 4033   5.293   3.000   5.443 -0.1256  0.7457 -0.4897
   30DOPC   O22 4034   5.264   2.936   5.546  0.2053  0.2002 -0.7980
   30DOPC   C22 4035   5.365   2.940   5.318  0.7617  0.2192  0.6708
   30DOPC   H2R 4036   5.356   2.831   5.333  0.5351  0.3775  1.8211
   30DOPC   H2S 4037   5.471   2.974   5.329 -0.2864  4.1248  0.1585
   30DOPC    C3 4038   5.049   3.178   5.515 -0.6461 -0.2267  0.3011
   30DOPC    HX 4039   5.020   3.253   5.439  0.3314 -1.7289 -1.6509
   30DOPC    HY 4040   5.007   3.208   5.614 -0.6044 -0.7108  0.4695
   30DOPC   O31 4041   4.990   3.043   5.492  0.5552  0.4124 -0.2986
   30DOPC   C31 4042   4.973   2.992   5.367 -0.6206 -0.4751 -0.4854
   30DOPC   O32 4043   5.016   3.045   5.264 -0.1686 -0.3465  0.1468
   30DOPC   C32 4044   4.903   2.861   5.376  0.6054 -0.2181 -0.2084
   30DOPC   H2X 4045   4.915   2.818   5.478 -0.9351  0.4728  0.2855
   30DOPC   H2Y 4046   4.795   2.884   5.377  0.4264 -1.0220 -0.2297
   30DOPC   C23 4047   5.317   2.995   5.181 -0.9122  0.0523 -0.4664
   30DOPC   H3R 4048   5.307   3.105   5.193  0.8463  0.2458 -0.5614
   30DOPC   H3S 4049   5.211   2.974   5.155 -0.8878 -0.1567 -0.3992
   30DOPC   C24 4050   5.427   2.967   5.077  1.2119  0.1592 -0.7425
   30DOPC   H4R 4051   5.440   2.857   5.077 -2.3922 -0.4582  1.7890
   30DOPC   H4S 4052   5.521   3.010   5.118  0.3779  1.3300  0.0203
   30DOPC   C25 4053   5.396   3.023   4.944  0.3983  0.0982  0.2500
   30DOPC   H5R 4054   5.343   3.120   4.955 -0.5570 -0.0889 -2.0917
   30DOPC   H5S 4055   5.322   2.962   4.887  0.1428  0.1629  0.5091
   30DOPC   C26 4056   5.518   3.032   4.850 -0.0781 -0.1066 -0.4556
   30DOPC   H6R 4057   5.570   2.934   4.848 -0.9294 -0.5939  0.3939
   30DOPC   H6S 4058   5.586   3.106   4.897 -2.2697  0.1338  2.6210
   30DOPC   C27 4059   5.492   3.113   4.716  0.5682  0.6293  0.4470
   30DOPC   H7R 4060   5.432   3.203   4.741 -0.3378  0.6403 -1.5503
   30DOPC   H7S 4061   5.434   3.037   4.659  1.6751 -1.7007  2.2753
   30DOPC   C28 4062   5.623   3.160   4.649  0.0656  0.5032  0.3891
   30DOPC   H8R 4063   5.691   3.196   4.729  1.3952 -1.8336  0.3754
   30DOPC   H8S 4064   5.588   3.238   4.577  3.9034  0.5362 -1.7273
   30DOPC   C29 4065   5.687   3.046   4.583 -0.7298  0.4004  0.3128
   30DOPC   H9R 4066   5.732   2.966   4.643 -0.5127  1.9072  2.2421
   30DOPC  C210 4067   5.710   3.037   4.448  0.0021  0.3896 -0.0818
   30DOPC  H10R 4068   5.739   2.937   4.411 -1.3464 -0.4354  0.9872
   30DOPC  C211 4069   5.660   3.132   4.342 -0.0185  0.4136  0.7527
   30DOPC  H11R 4070   5.554   3.158   4.361  0.6089  3.2414  0.8675
   30DOPC  H11S 4071   5.659   3.077   4.246 -0.5508 -0.3642  1.1881
   30DOPC  C212 4072   5.723   3.262   4.319 -0.4264 -0.2415  0.7062
   30DOPC  H12R 4073   5.826   3.254   4.277 -1.0186  2.6583 -1.5627
   30DOPC  H12S 4074   5.731   3.329   4.407 -0.0526 -0.3712  0.7748
   30DOPC  C213 4075   5.654   3.342   4.209  0.0062  0.2669 -0.3791
   30DOPC  H13R 4076   5.543   3.329   4.213  0.0638  0.0761  3.0268
   30DOPC  H13S 4077   5.682   3.294   4.112  1.1438  1.5013 -0.6853
   30DOPC  C214 4078   5.701   3.486   4.228  0.1518  0.2441 -0.2488
   30DOPC  H14R 4079   5.812   3.493   4.230  0.1661 -0.0250  0.2291
   30DOPC  H14S 4080   5.663   3.538   4.319  3.1782  0.6322  0.9291
   30DOPC  C215 4081   5.649   3.575   4.114 -0.1467 -0.6514 -0.8431
   30DOPC  H15R 4082   5.538   3.571   4.115 -0.2207  0.4248  1.5829
   30DOPC  H15S 4083   5.676   3.534   4.014 -0.5399 -0.3527 -1.0716
   30DOPC  C216 4084   5.701   3.720   4.125 -0.5587  0.5336 -0.2374
   30DOPC  H16R 4085   5.807   3.702   4.101 -0.9105 -1.5460 -0.3579
   30DOPC  H16S 4086   5.701   3.758   4.229 -1.7820  0.5008 -0.2090
   30DOPC  C217 4087   5.619   3.810   4.028 -0.2955  0.6991 -0.2000
   30DOPC  H17R 4088   5.685   3.898   4.019  0.2735  0.2586 -0.3954
   30DOPC  H17S 4089   5.520   3.838   4.070 -0.4430 -0.2473  0.1189
   30DOPC  C218 4090   5.611   3.763   3.881  0.0657  0.2759  0.0470
   30DOPC  H18R 4091   5.529   3.690   3.864  0.9996 -0.4361 -1.7260
   30DOPC  H18S 4092   5.708   3.715   3.854  1.0975  1.1778  1.9694
   30DOPC  H18T 4093   5.591   3.844   3.807 -0.8050 -1.6330 -1.9403
   30DOPC   C33 4094   4.915   2.787   5.242  0.2530  0.0756 -0.7004
   30DOPC   H3X 4095   4.894   2.852   5.155 -0.7488  0.5655 -0.1126
   30DOPC   H3Y 4096   4.841   2.704   5.243 -0.6669  0.8620  0.6075
   30DOPC   C34 4097   5.050   2.713   5.233 -0.4688 -0.2991 -0.8375
   30DOPC   H4X 4098   5.054   2.652   5.325  2.7693  1.0954  0.0937
   30DOPC   H4Y 4099   5.138   2.780   5.247 -0.2018 -1.2305  2.9936
   30DOPC   C35 4100   5.064   2.631   5.110 -0.9680 -0.3563  0.8888
   30DOPC   H5X 4101   4.989   2.550   5.100 -0.0078 -1.1232 -0.6555
   30DOPC   H5Y 4102   5.160   2.575   5.116 -0.0129  1.2886  1.7540
   30DOPC   C36 4103   5.051   2.727   4.987 -0.6893  0.8916  0.1174
   30DOPC   H6X 4104   4.943   2.743   4.966 -1.3697 -0.4807  2.2488
   30DOPC   H6Y 4105   5.104   2.824   4.996 -0.5101  0.7184  1.0170
   30DOPC   C37 4106   5.103   2.663   4.852  0.1994 -0.2527 -0.5969
   30DOPC   H7X 4107   5.044   2.569   4.846  0.1248 -0.1167 -2.9702
   30DOPC   H7Y 4108   5.083   2.729   4.765  0.6632 -0.1158 -0.6025
   30DOPC   C38 4109   5.251   2.637   4.856  0.2416 -0.4692 -0.8987
   30DOPC   H8X 4110   5.263   2.562   4.938 -0.6425 -2.2784 -2.3393
   30DOPC   H8Y 4111   5.313   2.729   4.863 -0.7560  0.1372  0.3653
   30DOPC   C39 4112   5.297   2.563   4.736 -0.8620 -0.3402  0.0120
   30DOPC   H9X 4113   5.300   2.454   4.756  1.0001 -0.4681 -0.7722
   30DOPC  C310 4114   5.355   2.607   4.626 -0.3817 -0.1510  0.2387
   30DOPC  H10X 4115   5.394   2.533   4.554 -0.1085  0.1222  0.1046
   30DOPC  C311 4116   5.374   2.754   4.589  0.6281 -0.5976  0.0997
   30DOPC  H11X 4117   5.482   2.771   4.567  0.8171  1.6315  2.3595
   30DOPC  H11Y 4118   5.345   2.829   4.665 -0.2414  0.0891 -0.8720
   30DOPC  C312 4119   5.286   2.788   4.462 -0.2969  0.5455  0.1462
   30DOPC  H12X 4120   5.180   2.770   4.488 -0.0643 -2.1771 -0.5338
   30DOPC  H12Y 4121   5.315   2.713   4.385  0.8340 -0.6905  1.6913
   30DOPC  C313 4122   5.300   2.936   4.414 -0.6341  0.6215  0.2829
   30DOPC  H13X 4123   5.318   3.010   4.495 -1.7978  0.1699  0.9771
   30DOPC  H13Y 4124   5.389   2.933   4.349  0.6069  0.0404  1.9394
   30DOPC  C314 4125   5.176   2.970   4.326  0.0371  0.2144 -0.4886
   30DOPC  H14X 4126   5.151   2.879   4.267 -0.1527  0.0938 -0.2236
   30DOPC  H14Y 4127   5.091   2.975   4.397 -0.4095 -1.9652 -0.8012
   30DOPC  C315 4128   5.194   3.093   4.242  0.0586 -0.0637  0.4005
   30DOPC  H15X 4129   5.107   3.110   4.175  1.5075 -0.2196 -1.6313
   30DOPC  H15Y 4130   5.270   3.081   4.161  1.7250 -0.3141  1.9381
   30DOPC  C316 4131   5.235   3.216   4.316  0.5109  0.8925 -0.2161
   30DOPC  H16X 4132   5.179   3.221   4.412 -0.4227 -0.5317 -0.6549
   30DOPC  H16Y 4133   5.343   3.206   4.340  0.3604 -0.1678  0.0605
   30DOPC  C317 4134   5.219   3.347   4.238 -0.3544 -0.3127  0.2963
   30DOPC  H17X 4135   5.264   3.354   4.136 -2.8578 -0.8607 -0.9257
   30DOPC  H17Y 4136   5.113   3.374   4.216  0.2283  1.7448 -0.2430
   30DOPC  C318 4137   5.273   3.466   4.317 -0.5774  0.0001  0.4285
   30DOPC  H18X 4138   5.284   3.558   4.256  0.2890 -0.7577 -0.5929
   30DOPC  H18Y 4139   5.229   3.500   4.413  0.1119  0.0778  0.7259
   30DOPC  H18Z 4140   5.377   3.438   4.346 -0.7252  0.3555  1.3532
   31DOPC     N 4141   6.918   5.486   5.568 -0.7235  0.1910  0.1631
   31DOPC   C12 4142   6.835   5.587   5.490 -1.8157 -0.0544  0.2132
   31DOPC  H12A 4143   6.821   5.668   5.560 -2.0870  0.6594 -0.6490
   31DOPC  H12B 4144   6.742   5.535   5.471 -1.8230  0.0019  0.0896
   31DOPC   C13 4145   6.842   5.445   5.695 -0.1077  0.5332  0.3627
   31DOPC  H13A 4146   6.833   5.541   5.745 -0.6895  0.5610  0.2077
   31DOPC  H13B 4147   6.750   5.395   5.672 -1.9228  4.3756 -1.8630
   31DOPC  H13C 4148   6.902   5.385   5.761 -0.0421  0.4703  0.2458
   31DOPC   C14 4149   7.047   5.530   5.613  0.2776  0.1900 -0.1952
   31DOPC  H14A 4150   7.106   5.445   5.642 -2.6264 -2.0104 -0.3337
   31DOPC  H14B 4151   7.101   5.582   5.535  2.2479  2.0245  2.2382
   31DOPC  H14C 4152   7.049   5.595   5.699  2.4703 -0.6558  0.4693
   31DOPC   C15 4153   6.946   5.364   5.498  0.5433 -0.1961  0.2303
   31DOPC  H15A 4154   6.861   5.313   5.457 -0.4837  1.6323 -0.0281
   31DOPC  H15B 4155   6.998   5.300   5.568  3.8008  0.0966 -1.7110
   31DOPC  H15C 4156   7.013   5.385   5.416  1.3556 -0.1231  0.8973
   31DOPC   C11 4157   6.886   5.647   5.358  0.2680  0.1027 -0.2466
   31DOPC  H11A 4158   6.914   5.554   5.304 -1.2917 -0.3157 -0.3972
   31DOPC  H11B 4159   6.794   5.687   5.309  0.2145 -1.2487 -1.3145
   31DOPC     P 4160   6.982   5.883   5.339  0.0779  0.3544 -0.0679
   31DOPC   O13 4161   7.112   5.944   5.376  0.1705 -0.5449  0.2015
   31DOPC   O14 4162   6.860   5.942   5.399 -0.0224 -0.2602 -0.6375
   31DOPC   O12 4163   6.991   5.735   5.390 -0.1598 -0.4742 -0.1468
   31DOPC   O11 4164   6.965   5.869   5.182 -0.1370  0.0884  0.0660
   31DOPC    C1 4165   7.068   5.814   5.096  0.0141 -0.3074  0.2284
   31DOPC    HA 4166   7.105   5.718   5.137  0.7105  0.0954  0.5538
   31DOPC    HB 4167   7.156   5.880   5.090 -0.1536 -0.1466 -0.5790
   31DOPC    C2 4168   7.018   5.800   4.950 -0.5045 -0.4047  0.0795
   31DOPC    HS 4169   7.077   5.718   4.903 -1.9086 -1.1402 -0.4659
   31DOPC   O21 4170   7.022   5.925   4.872  0.0881  0.5662 -0.0677
   31DOPC   C21 4171   7.131   5.932   4.805  0.4289 -1.1691 -0.2204
   31DOPC   O22 4172   7.221   5.854   4.789 -0.2354 -0.3055  0.2711
   31DOPC   C22 4173   7.129   6.075   4.747 -0.3919  0.1245 -0.4191
   31DOPC   H2R 4174   7.195   6.140   4.808 -1.0525 -1.4885  2.1846
   31DOPC   H2S 4175   7.031   6.123   4.768  0.2073  0.6226  1.4137
   31DOPC    C3 4176   6.882   5.737   4.953 -0.4892  0.1364 -0.3249
   31DOPC    HX 4177   6.803   5.785   5.014 -1.0248 -0.4704 -0.5293
   31DOPC    HY 4178   6.883   5.641   5.009 -1.2905  0.5237  0.3741
   31DOPC   O31 4179   6.837   5.714   4.824 -0.4663  0.4716  0.7338
   31DOPC   C31 4180   6.764   5.816   4.771 -0.7891  0.1815  0.1665
   31DOPC   O32 4181   6.744   5.920   4.824 -0.2986 -0.0374 -1.1089
   31DOPC   C32 4182   6.719   5.765   4.641  0.8759  0.3365  0.7785
   31DOPC   H2X 4183   6.803   5.770   4.569  0.4156  1.8199  0.3069
   31DOPC   H2Y 4184   6.696   5.657   4.651 -0.6716  0.6810  1.3720
   31DOPC   C23 4185   7.189   6.084   4.593 -0.4399 -0.4893  0.3437
   31DOPC   H3R 4186   7.278   6.019   4.580  0.6646  1.2896 -1.5778
   31DOPC   H3S 4187   7.219   6.189   4.577  1.0566 -0.7923  1.0307
   31DOPC   C24 4188   7.086   6.050   4.488  0.1259 -0.4201 -0.2144
   31DOPC   H4R 4189   7.043   5.953   4.521  0.6812 -0.6430 -0.1288
   31DOPC   H4S 4190   7.131   6.036   4.388  1.0142  1.5772 -0.1508
   31DOPC   C25 4191   6.973   6.155   4.493  0.4031  0.4182  0.2582
   31DOPC   H5R 4192   7.024   6.254   4.487 -0.4328  0.8240 -0.2478
   31DOPC   H5S 4193   6.928   6.143   4.594  0.2910  0.0131  0.1601
   31DOPC   C26 4194   6.871   6.132   4.379 -0.2260 -0.1921  0.1905
   31DOPC   H6R 4195   6.832   6.028   4.379 -1.8270  0.3852  1.0854
   31DOPC   H6S 4196   6.928   6.166   4.290  2.5003  0.4895  2.0508
   31DOPC   C27 4197   6.749   6.222   4.389 -0.2202  0.0553 -0.4589
   31DOPC   H7R 4198   6.771   6.329   4.370 -0.3431  0.1934  0.1675
   31DOPC   H7S 4199   6.714   6.206   4.493  1.1320 -0.1092 -0.0106
   31DOPC   C28 4200   6.650   6.193   4.282  0.0133 -0.1737  0.3392
   31DOPC   H8R 4201   6.636   6.083   4.285 -1.5039 -0.0023  0.2689
   31DOPC   H8S 4202   6.678   6.215   4.177 -1.0594 -3.8506 -0.8773
   31DOPC   C29 4203   6.515   6.258   4.322 -0.2684 -0.1466 -0.1498
   31DOPC   H9R 4204   6.480   6.240   4.425  1.4256  2.3237  0.9430
   31DOPC  C210 4205   6.450   6.356   4.249 -0.7220  0.6949 -0.2281
   31DOPC  H10R 4206   6.347   6.388   4.271 -0.7600  0.8687 -0.6633
   31DOPC  C211 4207   6.492   6.389   4.109  0.6332  0.2197 -0.0458
   31DOPC  H11R 4208   6.481   6.296   4.049  0.4592 -1.4682  2.4334
   31DOPC  H11S 4209   6.602   6.408   4.105  0.5526  0.6099 -0.4074
   31DOPC  C212 4210   6.418   6.510   4.043  0.0419 -0.0091  0.1301
   31DOPC  H12R 4211   6.307   6.500   4.051 -0.2822  1.4830 -1.7700
   31DOPC  H12S 4212   6.438   6.516   3.934  0.4714 -2.7313 -0.0015
   31DOPC  C213 4213   6.451   6.651   4.104 -0.4309  0.5838 -0.3531
   31DOPC  H13R 4214   6.411   6.652   4.208  1.1538  0.7605  0.2951
   31DOPC  H13S 4215   6.382   6.706   4.037 -0.0310  1.1106 -0.3371
   31DOPC  C214 4216   6.596   6.702   4.096 -0.6147  0.0604  0.1949
   31DOPC  H14R 4217   6.667   6.651   4.165  0.6873  0.1074 -1.0578
   31DOPC  H14S 4218   6.597   6.805   4.139 -0.3139  0.1890 -0.1092
   31DOPC  C215 4219   6.654   6.705   3.956  0.0952 -0.2751 -0.7717
   31DOPC  H15R 4220   6.656   6.605   3.908  1.9567 -0.5708 -0.1240
   31DOPC  H15S 4221   6.761   6.734   3.965 -0.5195  1.6446  1.4698
   31DOPC  C216 4222   6.586   6.801   3.862  0.2431  0.5149  0.4037
   31DOPC  H16R 4223   6.562   6.893   3.920  1.3021  2.0753 -1.4911
   31DOPC  H16S 4224   6.497   6.755   3.815  1.0923 -0.4472 -0.3182
   31DOPC  C217 4225   6.669   6.856   3.743 -0.1462  0.5142  0.2658
   31DOPC  H17R 4226   6.701   6.782   3.666  0.7527  1.2973 -0.1317
   31DOPC  H17S 4227   6.767   6.882   3.789 -0.2810  0.7612  0.4149
   31DOPC  C218 4228   6.597   6.971   3.666  0.4410 -0.2356 -0.1433
   31DOPC  H18R 4229   6.499   6.935   3.628  0.4822 -0.8320  0.3104
   31DOPC  H18S 4230   6.652   7.017   3.581  0.2680  2.0776  0.9282
   31DOPC  H18T 4231   6.578   7.060   3.730 -0.6044  0.1956 -1.0106
   31DOPC   C33 4232   6.594   5.830   4.579  0.0246  0.2994  0.9431
   31DOPC   H3X 4233   6.623   5.932   4.545  0.6399 -0.0490  0.3907
   31DOPC   H3Y 4234   6.518   5.844   4.659 -0.1710 -0.8243  0.9719
   31DOPC   C34 4235   6.556   5.751   4.458 -0.2377 -0.0782  0.4160
   31DOPC   H4X 4236   6.548   5.641   4.472 -1.8108 -0.5439 -3.1746
   31DOPC   H4Y 4237   6.632   5.759   4.377 -0.2479  3.0919  0.5793
   31DOPC   C35 4238   6.420   5.790   4.397  0.3135  0.2211  0.4050
   31DOPC   H5X 4239   6.436   5.892   4.356 -1.0477 -0.9960 -3.6811
   31DOPC   H5Y 4240   6.334   5.776   4.467  0.3895 -1.5281  0.1725
   31DOPC   C36 4241   6.389   5.709   4.272  0.0471  0.3098 -0.9925
   31DOPC   H6X 4242   6.463   5.717   4.190 -0.8683  1.8265 -1.7092
   31DOPC   H6Y 4243   6.372   5.603   4.304 -1.4248  0.5925 -0.7516
   31DOPC   C37 4244   6.266   5.764   4.193 -0.0922  1.2297 -0.0183
   31DOPC   H7X 4245   6.182   5.780   4.264 -1.1287  2.3959 -1.4484
   31DOPC   H7Y 4246   6.298   5.852   4.133  1.4567 -0.8164 -2.4076
   31DOPC   C38 4247   6.212   5.678   4.084  0.8115 -0.1447  0.2113
   31DOPC   H8X 4248   6.121   5.728   4.046  0.6599  0.1416  0.9444
   31DOPC   H8Y 4249   6.184   5.584   4.137  1.4330  0.5242  1.7757
   31DOPC   C39 4250   6.298   5.631   3.969 -0.3364 -0.1159  0.8731
   31DOPC   H9X 4251   6.400   5.673   3.966  0.4029 -1.8220 -2.5597
   31DOPC  C310 4252   6.256   5.564   3.858  0.1118  0.9883 -0.1232
   31DOPC  H10X 4253   6.334   5.537   3.785  1.1225 -0.4656  1.4089
   31DOPC  C311 4254   6.118   5.518   3.827  0.6421  0.2166  0.2524
   31DOPC  H11X 4255   6.108   5.542   3.719  0.8589 -1.7143 -0.2392
   31DOPC  H11Y 4256   6.036   5.579   3.873  0.5615  1.2320 -1.1737
   31DOPC  C312 4257   6.096   5.365   3.850  0.0996  0.4859  0.3422
   31DOPC  H12X 4258   6.134   5.327   3.947 -2.4007  0.9612  1.5730
   31DOPC  H12Y 4259   6.136   5.309   3.762  0.0062  0.3130  0.4089
   31DOPC  C313 4260   5.942   5.332   3.854  0.3928 -0.6676  0.2210
   31DOPC  H13X 4261   5.892   5.397   3.930 -0.6138  0.5191 -1.3836
   31DOPC  H13Y 4262   5.893   5.373   3.763  0.7431 -0.1951  0.2430
   31DOPC  C314 4263   5.930   5.183   3.881 -0.0501 -0.0839  0.3633
   31DOPC  H14X 4264   5.988   5.166   3.973  0.0952  2.4351  0.8039
   31DOPC  H14Y 4265   5.823   5.161   3.900 -0.1559 -1.0599 -1.1317
   31DOPC  C315 4266   5.980   5.100   3.759 -0.0253  0.4928 -0.4982
   31DOPC  H15X 4267   6.091   5.098   3.749  0.0521  1.5683  0.0162
   31DOPC  H15Y 4268   5.934   5.149   3.670 -0.0398 -0.2745 -0.9213
   31DOPC  C316 4269   5.944   4.953   3.761 -0.0241 -0.0452 -0.1025
   31DOPC  H16X 4270   6.004   4.889   3.829 -0.1142  2.2901  2.3567
   31DOPC  H16Y 4271   5.845   4.939   3.809 -0.0588 -0.4640 -0.2961
   31DOPC  C317 4272   5.957   4.885   3.622  0.4926  0.0156  0.1001
   31DOPC  H17X 4273   5.910   4.958   3.553  1.3285  0.9104  0.4611
   31DOPC  H17Y 4274   6.064   4.868   3.596 -0.3417 -1.6883 -2.5642
   31DOPC  C318 4275   5.876   4.753   3.606 -0.0953 -0.1649 -0.6032
   31DOPC  H18X 4276   5.918   4.679   3.678  0.3061  0.2308 -0.4286
   31DOPC  H18Y 4277   5.765   4.760   3.610 -0.1741 -1.1877 -0.7295
   31DOPC  H18Z 4278   5.906   4.719   3.505  1.0121 -0.8719 -0.0587
   32DOPC     N 4279   3.907   1.102   5.931  0.0851 -0.0273  0.3644
   32DOPC   C12 4280   3.996   1.065   5.811  0.6523 -0.4914 -0.0013
   32DOPC  H12A 4281   4.042   0.971   5.837  2.1099  0.4338  0.9236
   32DOPC  H12B 4282   4.075   1.135   5.788  2.3911 -2.3235  0.1226
   32DOPC   C13 4283   3.987   1.123   6.053 -0.8429  0.3037 -0.1165
   32DOPC  H13A 4284   4.048   1.211   6.038 -0.6279  0.3480  0.9863
   32DOPC  H13B 4285   3.918   1.160   6.127  0.4515  3.2722 -0.2379
   32DOPC  H13C 4286   4.049   1.040   6.083  0.9303  0.4190 -3.0500
   32DOPC   C14 4287   3.796   0.994   5.952 -0.2082  0.0399 -0.9986
   32DOPC  H14A 4288   3.762   0.968   5.852 -0.4999  0.6560 -1.0616
   32DOPC  H14B 4289   3.830   0.905   6.003 -2.0899 -0.2920 -0.2324
   32DOPC  H14C 4290   3.723   1.042   6.015 -0.7866 -1.3362 -0.5869
   32DOPC   C15 4291   3.829   1.227   5.914 -0.2419  0.2736 -0.4470
   32DOPC  H15A 4292   3.751   1.234   5.988 -0.6146 -0.8423 -0.7138
   32DOPC  H15B 4293   3.787   1.226   5.815  2.5329 -1.3367 -1.7404
   32DOPC  H15C 4294   3.888   1.317   5.905  1.4138 -0.8269 -0.9440
   32DOPC   C11 4295   3.932   1.024   5.667  0.2200 -0.3887 -0.0379
   32DOPC  H11A 4296   3.848   1.096   5.661 -0.4105 -1.0883  0.2398
   32DOPC  H11B 4297   4.006   1.028   5.585  0.9512  0.2531  0.6342
   32DOPC     P 4298   3.912   0.757   5.671  0.2752 -0.0125 -0.1330
   32DOPC   O13 4299   3.790   0.679   5.641 -0.4614 -0.6832  0.2953
   32DOPC   O14 4300   3.987   0.726   5.799 -0.3110  0.0411  0.0468
   32DOPC   O12 4301   3.868   0.906   5.681  0.5554  0.9416 -0.5269
   32DOPC   O11 4302   4.006   0.762   5.543  0.3524 -0.3479  0.1392
   32DOPC    C1 4303   4.146   0.776   5.558 -0.2840  0.4302 -1.3242
   32DOPC    HA 4304   4.189   0.688   5.612 -0.6829  1.9192  1.6636
   32DOPC    HB 4305   4.177   0.863   5.619 -1.2165  0.6640 -1.1657
   32DOPC    C2 4306   4.224   0.787   5.428  0.5946 -0.1475 -0.1399
   32DOPC    HS 4307   4.332   0.793   5.454  0.0534 -0.3109  2.4481
   32DOPC   O21 4308   4.179   0.905   5.354  0.0407 -0.0685 -0.2027
   32DOPC   C21 4309   4.223   1.018   5.387  0.4857 -0.7188  0.2900
   32DOPC   O22 4310   4.275   1.052   5.492 -0.1317  0.4126  0.8798
   32DOPC   C22 4311   4.212   1.112   5.263  0.0352 -0.3794 -0.3045
   32DOPC   H2R 4312   4.272   1.063   5.184  0.5526 -1.2522  0.6053
   32DOPC   H2S 4313   4.250   1.211   5.296 -2.0880 -0.1477  1.7344
   32DOPC    C3 4314   4.211   0.666   5.352  0.0826 -0.6225  0.1526
   32DOPC    HX 4315   4.109   0.666   5.308 -1.3693  4.9502  2.5986
   32DOPC    HY 4316   4.216   0.576   5.417  0.4968  0.0342  1.0604
   32DOPC   O31 4317   4.287   0.663   5.228  0.4233 -0.4669 -0.7293
   32DOPC   C31 4318   4.349   0.549   5.198  0.3391 -0.4370 -0.8159
   32DOPC   O32 4319   4.352   0.455   5.274  0.3809  0.6429 -0.5920
   32DOPC   C32 4320   4.423   0.551   5.058  0.0219  0.1911 -0.4881
   32DOPC   H2X 4321   4.487   0.641   5.070  1.2035 -0.9388  2.4886
   32DOPC   H2Y 4322   4.476   0.456   5.039 -2.1499 -1.6886  2.1724
   32DOPC   C23 4323   4.070   1.142   5.210  0.8064 -0.4776  0.4558
   32DOPC   H3R 4324   4.029   1.237   5.251 -1.3616 -1.3040  0.3217
   32DOPC   H3S 4325   4.003   1.063   5.250 -0.1193 -0.4704 -1.0031
   32DOPC   C24 4326   4.038   1.167   5.060 -0.5281 -0.3896  0.3212
   32DOPC   H4R 4327   3.928   1.181   5.048 -0.4041  0.2529 -0.1096
   32DOPC   H4S 4328   4.083   1.080   5.007  0.4499 -0.3045  0.9844
   32DOPC   C25 4329   4.105   1.286   4.989  0.3625  0.0888 -0.4486
   32DOPC   H5R 4330   4.207   1.291   5.033 -0.3390  1.3027  1.1501
   32DOPC   H5S 4331   4.045   1.375   5.017 -1.0823 -0.2337 -2.2877
   32DOPC   C26 4332   4.124   1.279   4.842  0.1196 -0.2756  0.3352
   32DOPC   H6R 4333   4.022   1.288   4.798  0.4765 -0.3999 -0.5355
   32DOPC   H6S 4334   4.172   1.188   4.801  2.0271  0.3904  1.0039
   32DOPC   C27 4335   4.209   1.393   4.776  0.6145  0.0747 -0.2833
   32DOPC   H7R 4336   4.314   1.357   4.776  0.3455 -0.7556  0.2536
   32DOPC   H7S 4337   4.205   1.492   4.826  2.5046 -0.6112  1.3907
   32DOPC   C28 4338   4.178   1.410   4.622  0.1903  0.2110  0.7576
   32DOPC   H8R 4339   4.248   1.492   4.594  0.1260  0.2291  0.6518
   32DOPC   H8S 4340   4.071   1.441   4.621 -0.0075 -0.4316  1.4167
   32DOPC   C29 4341   4.211   1.281   4.542  0.0066 -0.0626 -0.1816
   32DOPC   H9R 4342   4.166   1.189   4.581 -1.0624  0.7799  0.6315
   32DOPC  C210 4343   4.283   1.288   4.433 -0.0670 -0.1944  0.4590
   32DOPC  H10R 4344   4.307   1.205   4.365  1.8471  2.4034 -2.3048
   32DOPC  C211 4345   4.334   1.407   4.359  0.5216 -0.6136  0.1255
   32DOPC  H11R 4346   4.418   1.451   4.416  1.0512 -0.0140 -1.0810
   32DOPC  H11S 4347   4.253   1.483   4.352  0.0919 -0.8274  2.0772
   32DOPC  C212 4348   4.383   1.377   4.214  0.8701  0.4655  0.0788
   32DOPC  H12R 4349   4.442   1.283   4.224 -0.8809 -0.8910 -1.5759
   32DOPC  H12S 4350   4.446   1.461   4.178  0.1999  1.1143  0.3964
   32DOPC  C213 4351   4.260   1.360   4.117 -0.2446 -0.0890 -0.2853
   32DOPC  H13R 4352   4.191   1.443   4.143  0.2140  0.7841 -1.7282
   32DOPC  H13S 4353   4.208   1.263   4.129 -3.0468  1.2696 -0.7391
   32DOPC  C214 4354   4.295   1.372   3.969  0.0983  0.4529  0.1340
   32DOPC  H14R 4355   4.198   1.335   3.928 -0.9269  0.3549  2.5042
   32DOPC  H14S 4356   4.383   1.306   3.958 -1.1186 -1.2290  0.0286
   32DOPC  C215 4357   4.334   1.517   3.923 -0.9532  0.3216 -0.1114
   32DOPC  H15R 4358   4.421   1.542   3.986 -0.5351 -3.4185  1.0219
   32DOPC  H15S 4359   4.248   1.588   3.931 -0.5797  0.7404  0.2378
   32DOPC  C216 4360   4.393   1.537   3.776 -0.3421 -0.4023 -0.2570
   32DOPC  H16R 4361   4.475   1.462   3.779 -1.0302 -1.1330  1.0739
   32DOPC  H16S 4362   4.449   1.632   3.761 -0.2443 -0.6817 -1.7739
   32DOPC  C217 4363   4.301   1.499   3.669  0.4305  0.1051 -0.2833
   32DOPC  H17R 4364   4.231   1.417   3.699  0.1670  0.8583  1.2810
   32DOPC  H17S 4365   4.352   1.467   3.575  1.1963  0.2148  0.0893
   32DOPC  C218 4366   4.202   1.618   3.631  0.1135  0.0813 -0.0079
   32DOPC  H18R 4367   4.136   1.579   3.551  0.4442 -1.3125  0.3708
   32DOPC  H18S 4368   4.255   1.705   3.587 -2.0876  1.7173  0.4196
   32DOPC  H18T 4369   4.134   1.647   3.713  0.2309  0.7745 -0.1506
   32DOPC   C33 4370   4.317   0.557   4.944  0.1889  0.0236 -0.7168
   32DOPC   H3X 4371   4.256   0.647   4.964  0.7632  0.4773 -0.9681
   32DOPC   H3Y 4372   4.247   0.471   4.941 -0.4444  0.5258 -0.5391
   32DOPC   C34 4373   4.381   0.578   4.797  0.0047 -0.0032  0.1027
   32DOPC   H4X 4374   4.466   0.507   4.786  1.3212  1.6374 -0.9424
   32DOPC   H4Y 4375   4.413   0.684   4.794 -0.6600  0.2456  1.2684
   32DOPC   C35 4376   4.290   0.543   4.677 -0.4461  0.0354  0.5720
   32DOPC   H5X 4377   4.200   0.606   4.690 -0.5122 -0.2202  1.4580
   32DOPC   H5Y 4378   4.270   0.435   4.691  0.6908 -0.6010 -2.0389
   32DOPC   C36 4379   4.358   0.543   4.535 -0.3871 -0.4029 -0.4014
   32DOPC   H6X 4380   4.421   0.452   4.536  0.4410  0.1625 -0.1579
   32DOPC   H6Y 4381   4.279   0.545   4.457 -1.0803  2.5274  0.2599
   32DOPC   C37 4382   4.443   0.663   4.505  0.3326 -0.1970 -0.2506
   32DOPC   H7X 4383   4.378   0.752   4.514  2.3289  1.3166 -0.1441
   32DOPC   H7Y 4384   4.524   0.674   4.581  0.1474 -0.6455  0.0167
   32DOPC   C38 4385   4.492   0.661   4.362  0.4433  0.0892  0.3527
   32DOPC   H8X 4386   4.409   0.630   4.295 -0.0638  1.1981  0.4502
   32DOPC   H8Y 4387   4.576   0.588   4.362  0.1499 -0.2522  0.2883
   32DOPC   C39 4388   4.549   0.800   4.333  0.5712 -0.0395  0.2923
   32DOPC   H9X 4389   4.588   0.842   4.427  2.3062 -1.6979  0.3549
   32DOPC  C310 4390   4.547   0.878   4.219 -0.2426 -0.1119  0.0624
   32DOPC  H10X 4391   4.560   0.987   4.228  0.0092 -0.1017 -0.3931
   32DOPC  C311 4392   4.491   0.853   4.079 -1.2134 -0.3318 -0.4819
   32DOPC  H11X 4393   4.574   0.865   4.006 -0.8175  1.0239  0.1460
   32DOPC  H11Y 4394   4.412   0.928   4.056 -1.6384  0.7813  3.7261
   32DOPC  C312 4395   4.442   0.716   4.038  0.5014 -0.3979 -0.4510
   32DOPC  H12X 4396   4.349   0.695   4.094 -0.4417  1.0792 -1.4162
   32DOPC  H12Y 4397   4.523   0.644   4.065  2.4627  2.5131  2.2005
   32DOPC  C313 4398   4.417   0.711   3.887  0.1106  0.1401  0.5935
   32DOPC  H13X 4399   4.346   0.789   3.854 -0.1517  0.0374  0.9089
   32DOPC  H13Y 4400   4.508   0.731   3.826 -1.4827  1.0250 -1.6082
   32DOPC  C314 4401   4.358   0.563   3.850  0.1690  0.4788 -0.1250
   32DOPC  H14X 4402   4.429   0.478   3.859  0.7449  0.8938 -0.7377
   32DOPC  H14Y 4403   4.285   0.542   3.932 -1.0306  0.3023 -1.2159
   32DOPC  C315 4404   4.287   0.566   3.717 -0.6194  0.1451  0.1095
   32DOPC  H15X 4405   4.360   0.574   3.634 -2.2681 -1.7070 -1.6393
   32DOPC  H15Y 4406   4.232   0.663   3.715  0.9206  1.0403 -0.0779
   32DOPC  C316 4407   4.198   0.446   3.702  0.4358  0.2256  0.4696
   32DOPC  H16X 4408   4.248   0.347   3.699  0.4653  0.1059  3.0599
   32DOPC  H16Y 4409   4.133   0.451   3.792  0.5248  0.0697  0.5427
   32DOPC  C317 4410   4.112   0.470   3.577  0.6599 -0.2876 -0.8420
   32DOPC  H17X 4411   4.056   0.566   3.579  0.0486 -0.6185  2.4215
   32DOPC  H17Y 4412   4.186   0.496   3.498 -0.7099  2.1781 -1.4092
   32DOPC  C318 4413   4.014   0.360   3.541 -0.1687  0.2333  0.3891
   32DOPC  H18X 4414   4.076   0.284   3.489 -0.5331  1.5907 -2.2111
   32DOPC  H18Y 4415   3.956   0.320   3.627 -2.6600  0.2179 -1.2171
   32DOPC  H18Z 4416   3.943   0.396   3.464  1.4711  1.2344 -0.7230
   33DOPC     N 4417   7.856   4.605   5.532 -0.1173 -0.0702 -0.5014
   33DOPC   C12 4418   7.819   4.580   5.390  0.0620  0.6611 -0.3006
   33DOPC  H12A 4419   7.788   4.477   5.385 -1.0417  0.9732 -0.0065
   33DOPC  H12B 4420   7.911   4.569   5.334 -0.7135 -3.5051 -1.0741
   33DOPC   C13 4421   7.946   4.492   5.575  0.3135  0.0955 -0.4381
   33DOPC  H13A 4422   8.038   4.479   5.520  1.2345  1.4004  0.7232
   33DOPC  H13B 4423   7.970   4.517   5.678 -1.8910  3.0620 -0.5219
   33DOPC  H13C 4424   7.890   4.400   5.587  1.1794 -0.1915  2.4251
   33DOPC   C14 4425   7.735   4.589   5.620  0.0437  0.0327  0.4517
   33DOPC  H14A 4426   7.771   4.607   5.721 -0.0504  2.1218  0.1498
   33DOPC  H14B 4427   7.671   4.675   5.607 -1.3244 -1.0616 -0.3475
   33DOPC  H14C 4428   7.685   4.496   5.596 -1.7062  0.8305  0.8258
   33DOPC   C15 4429   7.923   4.736   5.552  0.0049  0.4472 -0.2529
   33DOPC  H15A 4430   7.938   4.753   5.658  0.2512 -3.1771  0.4022
   33DOPC  H15B 4431   7.846   4.807   5.524 -2.2169 -1.4705  0.7241
   33DOPC  H15C 4432   8.018   4.751   5.502  0.4243  3.2918  1.1914
   33DOPC   C11 4433   7.725   4.669   5.315  0.0319  0.5504  0.3397
   33DOPC  H11A 4434   7.767   4.770   5.336 -0.3049  0.4007  1.7983
   33DOPC  H11B 4435   7.728   4.644   5.207  0.6184  1.4805  0.1272
   33DOPC     P 4436   7.504   4.536   5.331 -0.2193 -0.1362 -0.0068
   33DOPC   O13 4437   7.374   4.531   5.403  0.5383 -0.1131  0.2155
   33DOPC   O14 4438   7.595   4.421   5.351 -0.8777  0.0802  0.5365
   33DOPC   O12 4439   7.594   4.661   5.372 -0.6060 -0.1226  0.5493
   33DOPC   O11 4440   7.477   4.561   5.174  0.7983  0.2510  0.1334
   33DOPC    C1 4441   7.449   4.689   5.118 -0.1204  0.4970 -0.2035
   33DOPC    HA 4442   7.455   4.688   5.007  2.1845 -3.5034 -0.2169
   33DOPC    HB 4443   7.528   4.760   5.149 -0.3086  1.1287 -1.1454
   33DOPC    C2 4444   7.314   4.756   5.161  1.0607 -0.3519 -0.2330
   33DOPC    HS 4445   7.307   4.748   5.271 -0.7242 -0.4161 -0.3246
   33DOPC   O21 4446   7.204   4.696   5.097 -0.2300 -0.3204  0.2341
   33DOPC   C21 4447   7.084   4.720   5.154 -0.0824  0.4681  0.0709
   33DOPC   O22 4448   7.068   4.779   5.256  0.1049 -0.4966 -0.4951
   33DOPC   C22 4449   6.965   4.698   5.054  0.1307  0.2973  0.1867
   33DOPC   H2R 4450   6.906   4.616   5.101 -0.3737  0.4099 -0.2469
   33DOPC   H2S 4451   6.997   4.658   4.955 -0.3346  1.6302 -0.5164
   33DOPC    C3 4452   7.322   4.914   5.133 -0.4564 -0.3553  0.1779
   33DOPC    HX 4453   7.404   4.953   5.198 -0.0958 -0.5365 -0.1661
   33DOPC    HY 4454   7.223   4.952   5.166 -0.2334 -1.8843  2.9401
   33DOPC   O31 4455   7.351   4.936   4.994 -0.4274 -0.3338 -0.1377
   33DOPC   C31 4456   7.372   5.063   4.959 -0.1095  0.5400  0.1044
   33DOPC   O32 4457   7.348   5.163   5.019  0.1442  0.8163  0.5492
   33DOPC   C32 4458   7.414   5.066   4.812 -0.4460 -0.6604 -0.5256
   33DOPC   H2X 4459   7.500   4.997   4.797  1.4472  1.8801 -2.2761
   33DOPC   H2Y 4460   7.329   5.024   4.755 -0.9295  0.8174 -0.9382
   33DOPC   C23 4461   6.892   4.836   5.048  0.2844  0.6029  0.2884
   33DOPC   H3R 4462   6.876   4.876   5.150  0.1459 -1.4758  1.1296
   33DOPC   H3S 4463   6.788   4.822   5.009  1.0088  1.0620 -1.9910
   33DOPC   C24 4464   6.966   4.919   4.945  1.0621 -0.4940 -0.0643
   33DOPC   H4R 4465   6.993   4.856   4.858  1.9259 -0.6187  0.2832
   33DOPC   H4S 4466   7.063   4.955   4.987  1.8467 -2.4479 -0.1028
   33DOPC   C25 4467   6.886   5.037   4.895  0.0855 -0.0706  0.4306
   33DOPC   H5R 4468   6.784   5.017   4.855 -0.4697  2.3130  0.5474
   33DOPC   H5S 4469   6.930   5.082   4.804 -0.4993  0.5538  0.4523
   33DOPC   C26 4470   6.865   5.142   5.000  0.5292 -0.0749  0.8819
   33DOPC   H6R 4471   6.960   5.172   5.050  1.1111 -0.0152 -0.2411
   33DOPC   H6S 4472   6.797   5.100   5.077 -1.9380  0.6863 -0.7623
   33DOPC   C27 4473   6.793   5.267   4.935  0.3653  0.4208 -0.2300
   33DOPC   H7R 4474   6.863   5.300   4.855  0.9959  1.2443  0.6354
   33DOPC   H7S 4475   6.799   5.350   5.009 -0.2642 -0.1973  0.5285
   33DOPC   C28 4476   6.652   5.250   4.878  0.1878  0.1876  0.2564
   33DOPC   H8R 4477   6.573   5.236   4.955 -0.8132  1.9365 -0.3941
   33DOPC   H8S 4478   6.654   5.158   4.816  1.9296 -1.9740  3.2069
   33DOPC   C29 4479   6.622   5.380   4.796  1.2437 -0.5491  0.2486
   33DOPC   H9R 4480   6.679   5.466   4.834  3.0319 -2.3681  1.9424
   33DOPC  C210 4481   6.544   5.390   4.689  0.2556  0.0842  0.0131
   33DOPC  H10R 4482   6.521   5.489   4.648 -1.2000  0.0052  0.5838
   33DOPC  C211 4483   6.483   5.279   4.615  0.6724  0.8527  0.3070
   33DOPC  H11R 4484   6.404   5.233   4.678  1.3720  1.4889  1.6854
   33DOPC  H11S 4485   6.546   5.187   4.607 -0.8262 -0.3431  1.6189
   33DOPC  C212 4486   6.435   5.317   4.470 -0.2443  0.1656  0.5263
   33DOPC  H12R 4487   6.529   5.338   4.417  0.7362 -2.3784  1.1089
   33DOPC  H12S 4488   6.360   5.399   4.469  1.5759  1.9017 -0.6880
   33DOPC  C213 4489   6.365   5.198   4.398  0.6188 -0.4409  0.3222
   33DOPC  H13R 4490   6.293   5.147   4.465 -1.0022  2.0170  0.5662
   33DOPC  H13S 4491   6.434   5.120   4.360  1.4045  0.1893  0.4200
   33DOPC  C214 4492   6.295   5.251   4.274 -0.3809 -0.0797 -0.0368
   33DOPC  H14R 4493   6.285   5.362   4.274  2.2346  0.2299  0.0281
   33DOPC  H14S 4494   6.200   5.197   4.259 -1.1332  0.4567  2.3542
   33DOPC  C215 4495   6.375   5.220   4.145  0.1040 -0.3139 -0.0506
   33DOPC  H15R 4496   6.308   5.196   4.060 -0.6562 -0.4647  0.5851
   33DOPC  H15S 4497   6.428   5.123   4.154  1.6548  0.4893 -0.1116
   33DOPC  C216 4498   6.471   5.325   4.092  0.1601 -0.3207  0.4931
   33DOPC  H16R 4499   6.548   5.350   4.168  1.4165 -2.4756  0.0146
   33DOPC  H16S 4500   6.409   5.416   4.073  1.0482  0.0652 -0.6912
   33DOPC  C217 4501   6.539   5.293   3.962 -0.3316 -0.7973  0.3085
   33DOPC  H17R 4502   6.459   5.284   3.885 -1.1731 -0.4944  1.1305
   33DOPC  H17S 4503   6.590   5.194   3.960  0.1896 -0.5196 -0.4817
   33DOPC  C218 4504   6.639   5.408   3.918  0.1645  0.7216  0.3791
   33DOPC  H18R 4505   6.690   5.391   3.820  0.8158  1.9861  0.4764
   33DOPC  H18S 4506   6.705   5.420   4.006 -0.5660 -0.9349  1.1982
   33DOPC  H18T 4507   6.584   5.504   3.910  0.3719  0.9388  1.4320
   33DOPC   C33 4508   7.451   5.210   4.758 -0.3511 -0.9075 -0.8720
   33DOPC   H3X 4509   7.533   5.250   4.821 -0.7950  1.8047 -1.8688
   33DOPC   H3Y 4510   7.368   5.275   4.794  1.7879  1.2905  0.3509
   33DOPC   C34 4511   7.482   5.222   4.615  0.0597  1.1278 -0.3605
   33DOPC   H4X 4512   7.563   5.147   4.602 -0.0753  0.9001  0.0672
   33DOPC   H4Y 4513   7.523   5.323   4.595  0.3946  0.8340 -1.1658
   33DOPC   C35 4514   7.370   5.188   4.521 -0.4490  0.1980 -0.7822
   33DOPC   H5X 4515   7.286   5.261   4.522  0.5303  1.3984 -2.1463
   33DOPC   H5Y 4516   7.336   5.087   4.553 -0.0789  0.3808  0.2335
   33DOPC   C36 4517   7.427   5.164   4.382 -0.2520 -0.0894  0.2130
   33DOPC   H6X 4518   7.484   5.255   4.352  0.9647 -1.2400 -1.1082
   33DOPC   H6Y 4519   7.494   5.076   4.383 -1.4831 -1.0735 -0.6655
   33DOPC   C37 4520   7.319   5.149   4.283 -0.0352  0.4483 -0.1925
   33DOPC   H7X 4521   7.266   5.052   4.296  1.3943 -0.3022  0.1839
   33DOPC   H7Y 4522   7.252   5.236   4.299 -0.8368 -0.5224  2.2907
   33DOPC   C38 4523   7.381   5.148   4.144 -0.3616 -0.1749 -0.2394
   33DOPC   H8X 4524   7.468   5.079   4.144  0.1517  0.3788 -2.6853
   33DOPC   H8Y 4525   7.429   5.248   4.138  0.2273 -0.4117  0.3375
   33DOPC   C39 4526   7.276   5.110   4.043 -0.2366 -0.4494  0.3190
   33DOPC   H9X 4527   7.235   5.009   4.044  0.5625 -0.7854  0.9721
   33DOPC  C310 4528   7.234   5.203   3.955  0.7539 -0.3869  0.8215
   33DOPC  H10X 4529   7.143   5.183   3.897 -0.3128  1.9144  1.5610
   33DOPC  C311 4530   7.288   5.343   3.929 -0.7978  0.1572  0.3576
   33DOPC  H11X 4531   7.343   5.346   3.833 -0.3452 -1.1141  0.5580
   33DOPC  H11Y 4532   7.372   5.366   3.998  0.4471 -2.8925  0.0120
   33DOPC  C312 4533   7.186   5.458   3.914 -0.3148  0.1954  0.0260
   33DOPC  H12X 4534   7.145   5.467   4.017  0.2966  0.1168  0.2770
   33DOPC  H12Y 4535   7.111   5.433   3.835 -1.5917  0.3493  1.1485
   33DOPC  C313 4536   7.250   5.598   3.899 -0.2720 -1.2771 -0.3836
   33DOPC  H13X 4537   7.288   5.615   3.796  0.0948  1.1589  0.0925
   33DOPC  H13Y 4538   7.174   5.676   3.921  1.0760 -0.4935  1.9008
   33DOPC  C314 4539   7.373   5.638   3.980  0.1014 -0.0481 -0.4123
   33DOPC  H14X 4540   7.349   5.659   4.087 -0.5778  1.3288 -0.8048
   33DOPC  H14Y 4541   7.437   5.549   3.963 -0.7814 -0.6110 -0.8763
   33DOPC  C315 4542   7.452   5.767   3.945 -0.1295  0.8268  0.6241
   33DOPC  H15X 4543   7.436   5.845   4.024  1.4774 -0.5446  2.3972
   33DOPC  H15Y 4544   7.413   5.812   3.851 -1.3870 -2.0685 -0.3519
   33DOPC  C316 4545   7.602   5.742   3.927  0.3179 -0.2184  0.5295
   33DOPC  H16X 4546   7.647   5.717   4.025  0.7727  2.3866  1.0729
   33DOPC  H16Y 4547   7.607   5.658   3.855  1.5255  0.4520 -0.2116
   33DOPC  C317 4548   7.680   5.856   3.861 -0.7278  0.5151 -0.1683
   33DOPC  H17X 4549   7.622   5.882   3.769 -1.2422  0.0261  0.0088
   33DOPC  H17Y 4550   7.679   5.941   3.932 -1.6257  1.3821 -1.1842
   33DOPC  C318 4551   7.832   5.835   3.844 -0.5042  0.1211  0.1349
   33DOPC  H18X 4552   7.875   5.792   3.937 -0.4282  2.0530  1.0476
   33DOPC  H18Y 4553   7.864   5.763   3.766 -0.2466 -0.0666  0.4104
   33DOPC  H18Z 4554   7.885   5.929   3.817  0.2048 -0.4631 -0.5704
   34DOPC     N 4555   3.707   4.667   5.638  0.1490  0.1636  0.4008
   34DOPC   C12 4556   3.686   4.693   5.492  0.3169  0.3465  0.0995
   34DOPC  H12A 4557   3.639   4.608   5.444 -2.7122  1.3975  0.9843
   34DOPC  H12B 4558   3.782   4.708   5.447  0.5416  0.8242  0.7254
   34DOPC   C13 4559   3.725   4.790   5.714 -0.6832  1.0539  0.2427
   34DOPC  H13A 4560   3.806   4.855   5.685  0.5143  1.0337  3.1995
   34DOPC  H13B 4561   3.638   4.851   5.735  0.7071  2.1813  3.4771
   34DOPC  H13C 4562   3.754   4.748   5.809 -1.3904  0.3990  0.1753
   34DOPC   C14 4563   3.830   4.578   5.642 -0.9193 -0.9392  0.5453
   34DOPC  H14A 4564   3.821   4.498   5.570 -1.8530 -1.0180  0.7320
   34DOPC  H14B 4565   3.912   4.634   5.601 -0.2512 -2.7440 -0.7197
   34DOPC  H14C 4566   3.864   4.535   5.735  1.1608  0.7459  0.6315
   34DOPC   C15 4567   3.593   4.590   5.692  0.6457  0.6933 -0.0643
   34DOPC  H15A 4568   3.499   4.631   5.659  0.6742  0.5887 -0.2804
   34DOPC  H15B 4569   3.597   4.590   5.800  1.8922  1.6611 -0.0774
   34DOPC  H15C 4570   3.585   4.488   5.657 -2.0066  0.3215  1.4092
   34DOPC   C11 4571   3.600   4.819   5.455 -0.2650 -0.2478  0.0694
   34DOPC  H11A 4572   3.556   4.806   5.354 -0.0171  0.8795 -0.2011
   34DOPC  H11B 4573   3.513   4.822   5.524 -1.3823 -0.1925 -1.3000
   34DOPC     P 4574   3.780   4.977   5.363 -0.0708  0.2111 -0.3823
   34DOPC   O13 4575   3.862   4.860   5.340 -0.2739 -0.0171 -0.0508
   34DOPC   O14 4576   3.849   5.097   5.410 -0.4675 -0.3240 -0.0906
   34DOPC   O12 4577   3.678   4.938   5.476  0.3012  0.2643 -0.1402
   34DOPC   O11 4578   3.699   5.014   5.236  0.4941  0.2549  0.1494
   34DOPC    C1 4579   3.772   5.047   5.110  0.0214 -0.5583 -0.5048
   34DOPC    HA 4580   3.744   4.968   5.038 -0.3758 -1.4802  0.6396
   34DOPC    HB 4581   3.882   5.053   5.125 -0.2017  0.6946  0.8790
   34DOPC    C2 4582   3.734   5.188   5.040  0.0091  0.6234 -0.7400
   34DOPC    HS 4583   3.742   5.262   5.122  1.0820 -3.2381  3.0232
   34DOPC   O21 4584   3.598   5.177   4.995 -0.1108 -0.5204  0.8345
   34DOPC   C21 4585   3.501   5.213   5.085 -0.7437 -0.0034 -0.2385
   34DOPC   O22 4586   3.525   5.264   5.193  0.2577  0.2834  0.1190
   34DOPC   C22 4587   3.358   5.194   5.043 -0.0183 -0.3346  0.5425
   34DOPC   H2R 4588   3.323   5.293   5.006 -0.2449 -0.3911  0.6039
   34DOPC   H2S 4589   3.300   5.164   5.133 -1.1261  0.4376  0.1072
   34DOPC    C3 4590   3.832   5.243   4.932 -0.1283  0.8107  0.4391
   34DOPC    HX 4591   3.929   5.246   4.986 -0.4697  0.6533  1.0630
   34DOPC    HY 4592   3.814   5.348   4.902 -0.4913  0.2080 -1.6358
   34DOPC   O31 4593   3.823   5.169   4.807 -0.0316 -0.0411 -0.1277
   34DOPC   C31 4594   3.899   5.062   4.788  0.1287  0.4356 -0.2436
   34DOPC   O32 4595   3.960   5.000   4.867 -0.2069  0.1562 -0.4622
   34DOPC   C32 4596   3.879   5.015   4.641 -0.1734  0.0483  0.4815
   34DOPC   H2X 4597   3.824   4.920   4.652  0.3198 -0.3373 -0.2923
   34DOPC   H2Y 4598   3.816   5.084   4.580 -2.3447 -0.9062  1.5285
   34DOPC   C23 4599   3.341   5.080   4.934  0.0840 -0.0779  0.0418
   34DOPC   H3R 4600   3.357   4.982   4.984  0.2758  0.8064  1.7892
   34DOPC   H3S 4601   3.412   5.085   4.848 -0.9621  1.8324 -0.7695
   34DOPC   C24 4602   3.198   5.074   4.887 -0.4130  0.4144 -0.4025
   34DOPC   H4R 4603   3.125   5.072   4.971 -0.7683 -1.4017 -0.6978
   34DOPC   H4S 4604   3.185   4.980   4.829 -2.4590 -0.2964  1.0760
   34DOPC   C25 4605   3.170   5.188   4.783 -0.3025 -0.3863  0.2839
   34DOPC   H5R 4606   3.249   5.200   4.705 -1.2587  1.3294 -0.4738
   34DOPC   H5S 4607   3.177   5.280   4.844  0.6332 -1.1222  1.3302
   34DOPC   C26 4608   3.029   5.175   4.714 -0.4712 -0.5602  0.0689
   34DOPC   H6R 4609   3.009   5.265   4.653 -1.2608 -0.4575  0.4708
   34DOPC   H6S 4610   2.970   5.174   4.808 -0.6707  1.3583  0.0127
   34DOPC   C27 4611   3.010   5.053   4.631 -0.3327  0.1463  0.0802
   34DOPC   H7R 4612   2.907   5.050   4.590  0.3350 -0.2957 -1.6435
   34DOPC   H7S 4613   3.005   4.971   4.706  0.9580  0.7623  0.8702
   34DOPC   C28 4614   3.114   5.035   4.515  0.0287 -0.2199 -0.7181
   34DOPC   H8R 4615   3.095   4.935   4.470  1.5962 -1.3585  1.0156
   34DOPC   H8S 4616   3.215   5.032   4.562 -0.6846  0.3878  0.9129
   34DOPC   C29 4617   3.110   5.142   4.407 -0.7482 -0.1483 -0.4874
   34DOPC   H9R 4618   3.138   5.244   4.438 -1.2352 -0.1333 -0.0836
   34DOPC  C210 4619   3.095   5.115   4.277  0.2023  0.9523  0.4604
   34DOPC  H10R 4620   3.102   5.198   4.205  2.4375 -0.5748 -1.2059
   34DOPC  C211 4621   3.056   4.982   4.212 -0.2072  0.4336  0.4083
   34DOPC  H11R 4622   3.011   5.006   4.113  0.3644  0.8848  0.2519
   34DOPC  H11S 4623   2.975   4.934   4.273 -0.9662  0.1834 -0.7722
   34DOPC  C212 4624   3.169   4.881   4.202 -0.1140  0.0809  0.3242
   34DOPC  H12R 4625   3.114   4.793   4.163  1.4222 -1.7162  1.9908
   34DOPC  H12S 4626   3.210   4.835   4.294  1.2821 -0.8293 -0.7043
   34DOPC  C213 4627   3.270   4.907   4.095  0.1614 -0.0377 -0.3711
   34DOPC  H13R 4628   3.343   4.981   4.134  0.1668 -0.5218  0.5666
   34DOPC  H13S 4629   3.236   4.917   3.989 -1.3273 -2.4160 -0.2035
   34DOPC  C214 4630   3.355   4.785   4.070 -0.5332  0.0893  0.6470
   34DOPC  H14R 4631   3.303   4.706   4.011  0.2030 -0.8193  1.1818
   34DOPC  H14S 4632   3.374   4.745   4.172  0.0209 -0.6055  0.2828
   34DOPC  C215 4633   3.493   4.813   4.017 -0.2056  0.1155  0.3977
   34DOPC  H15R 4634   3.543   4.890   4.080 -1.6387  1.2482  0.1944
   34DOPC  H15S 4635   3.468   4.874   3.927  1.1138  2.1559  1.3295
   34DOPC  C216 4636   3.573   4.692   3.976 -0.3647  0.0550 -0.1054
   34DOPC  H16R 4637   3.522   4.628   3.901 -1.0095 -1.0693  1.2284
   34DOPC  H16S 4638   3.599   4.641   4.071 -0.6318 -1.6722 -0.9318
   34DOPC  C217 4639   3.716   4.740   3.931  0.6134  0.8291  0.3652
   34DOPC  H17R 4640   3.757   4.832   3.978  1.5362  0.3647  0.4906
   34DOPC  H17S 4641   3.692   4.761   3.824  0.5980 -1.7854 -0.2071
   34DOPC  C218 4642   3.817   4.623   3.926  0.0410  0.2146 -0.2966
   34DOPC  H18R 4643   3.766   4.552   3.857  0.2784  0.2452 -0.5029
   34DOPC  H18S 4644   3.829   4.589   4.031  1.5643  0.0770 -0.5041
   34DOPC  H18T 4645   3.916   4.655   3.889 -0.1399  2.2538  0.8434
   34DOPC   C33 4646   4.013   4.997   4.563  0.2544  0.1322 -0.6837
   34DOPC   H3X 4647   3.993   4.945   4.467 -3.2599  0.2020 -0.1191
   34DOPC   H3Y 4648   4.084   4.931   4.617 -1.1233 -3.0814 -2.5561
   34DOPC   C34 4649   4.065   5.138   4.528  0.3863 -0.5638  0.0961
   34DOPC   H4X 4650   4.114   5.194   4.610 -1.9114 -1.0049  1.8755
   34DOPC   H4Y 4651   3.978   5.200   4.495  0.2705 -1.1455 -0.7256
   34DOPC   C35 4652   4.160   5.139   4.406 -0.2871 -0.0198  0.1312
   34DOPC   H5X 4653   4.164   5.246   4.377 -1.4691 -0.2799 -1.1107
   34DOPC   H5Y 4654   4.103   5.080   4.331 -1.7226 -1.5238  2.2712
   34DOPC   C36 4655   4.295   5.073   4.442 -0.0365 -0.6584 -0.4155
   34DOPC   H6X 4656   4.347   5.154   4.498 -0.4585 -0.1015 -0.8200
   34DOPC   H6Y 4657   4.282   4.983   4.505  0.0412 -0.2171  0.2464
   34DOPC   C37 4658   4.387   5.012   4.336  0.1790 -0.0102  0.5847
   34DOPC   H7X 4659   4.418   5.100   4.276 -0.0666  1.6615  2.7808
   34DOPC   H7Y 4660   4.476   4.960   4.376 -0.1239 -1.2211 -0.2603
   34DOPC   C38 4661   4.321   4.909   4.238 -0.2211 -0.3433 -0.1715
   34DOPC   H8X 4662   4.234   4.960   4.193 -0.2585 -0.3845 -0.1452
   34DOPC   H8Y 4663   4.279   4.822   4.293 -1.8293  1.0186  0.8162
   34DOPC   C39 4664   4.399   4.871   4.116 -0.1871  0.4494  0.0259
   34DOPC   H9X 4665   4.372   4.930   4.027  0.6903 -1.4758 -1.5855
   34DOPC  C310 4666   4.496   4.787   4.094  0.7752  0.6388 -0.2250
   34DOPC  H10X 4667   4.533   4.776   3.991  1.0686  0.0425 -0.0563
   34DOPC  C311 4668   4.538   4.681   4.182  0.1545 -0.0379  0.1980
   34DOPC  H11X 4669   4.554   4.593   4.115  3.6204  1.3220 -0.9861
   34DOPC  H11Y 4670   4.454   4.656   4.251  1.6593  1.9311  2.9535
   34DOPC  C312 4671   4.673   4.693   4.253 -0.5378 -0.4211  0.2328
   34DOPC  H12X 4672   4.675   4.796   4.295 -1.0700 -0.2548 -0.1335
   34DOPC  H12Y 4673   4.754   4.673   4.180 -0.8998 -0.6892 -0.1006
   34DOPC  C313 4674   4.678   4.601   4.378 -0.1054 -0.1689 -0.6204
   34DOPC  H13X 4675   4.582   4.611   4.432  0.1920  0.1593 -0.1394
   34DOPC  H13Y 4676   4.696   4.496   4.347  2.8535 -0.4424  1.5668
   34DOPC  C314 4677   4.792   4.641   4.476  0.0787  0.5582  0.0652
   34DOPC  H14X 4678   4.813   4.750   4.471  0.6863  0.4227 -0.5015
   34DOPC  H14Y 4679   4.763   4.622   4.581  0.0669 -0.0400 -0.0393
   34DOPC  C315 4680   4.913   4.556   4.440 -0.6998  0.0483 -0.8954
   34DOPC  H15X 4681   5.006   4.617   4.440 -0.3421 -0.4891 -0.7489
   34DOPC  H15Y 4682   4.912   4.529   4.332 -1.5056  1.7730 -1.3557
   34DOPC  C316 4683   4.920   4.427   4.526 -0.2940 -0.7256  0.4886
   34DOPC  H16X 4684   4.814   4.400   4.542 -0.9500 -0.1210 -2.3071
   34DOPC  H16Y 4685   4.973   4.342   4.475 -0.3879 -0.3859 -0.1890
   34DOPC  C317 4686   4.995   4.444   4.663  0.4843 -0.3527  0.8714
   34DOPC  H17X 4687   5.009   4.552   4.687 -0.7493  0.2845 -1.0386
   34DOPC  H17Y 4688   4.950   4.393   4.750  2.0098 -3.0222  0.2069
   34DOPC  C318 4689   5.134   4.395   4.653 -0.2277  0.8446 -0.0220
   34DOPC  H18X 4690   5.185   4.439   4.564  1.0083 -0.1491  0.1653
   34DOPC  H18Y 4691   5.199   4.413   4.741 -0.9558  0.8878  0.5096
   34DOPC  H18Z 4692   5.138   4.285   4.639 -4.1089  0.8604 -2.8335
   35DOPC     N 4693   4.093   5.861   5.917 -0.0394 -0.0742  0.4130
   35DOPC   C12 4694   4.044   5.881   5.776  0.3668 -0.3977  0.0601
   35DOPC  H12A 4695   4.012   5.984   5.769 -0.0520 -0.5835 -0.9911
   35DOPC  H12B 4696   3.957   5.819   5.760  1.0278 -1.7600  1.5653
   35DOPC   C13 4697   4.121   5.718   5.963 -0.6463  0.5593  0.3589
   35DOPC  H13A 4698   4.123   5.695   6.068  2.6512  0.1924  0.3417
   35DOPC  H13B 4699   4.038   5.654   5.938 -0.6275 -0.1591  2.0344
   35DOPC  H13C 4700   4.206   5.672   5.915  0.5207  1.8613  1.1072
   35DOPC   C14 4701   3.999   5.924   6.019  0.2274 -0.5769 -0.4763
   35DOPC  H14A 4702   3.984   6.031   6.011 -0.7265 -0.6969 -0.3840
   35DOPC  H14B 4703   3.903   5.874   6.017  1.2269 -2.7439  1.2695
   35DOPC  H14C 4704   4.031   5.906   6.120 -1.9164 -3.6866 -0.2039
   35DOPC   C15 4705   4.225   5.935   5.942 -0.3871 -0.4453 -0.5975
   35DOPC  H15A 4706   4.258   5.942   6.045  2.6316 -1.4691 -1.4094
   35DOPC  H15B 4707   4.216   6.039   5.912  2.0106 -0.6213 -2.2157
   35DOPC  H15C 4708   4.309   5.887   5.894 -2.6142 -2.1381 -3.0748
   35DOPC   C11 4709   4.131   5.838   5.659 -0.1963 -0.5569 -0.4547
   35DOPC  H11A 4710   4.226   5.896   5.668 -1.6001  1.6835  0.7892
   35DOPC  H11B 4711   4.161   5.731   5.665 -1.5357 -0.8587  1.8103
   35DOPC     P 4712   4.087   5.790   5.408  0.1396  0.0242  0.2478
   35DOPC   O13 4713   4.054   5.879   5.292  0.3600  0.1675  0.5403
   35DOPC   O14 4714   4.013   5.662   5.410  0.1610  0.6317 -0.0736
   35DOPC   O12 4715   4.065   5.875   5.538  0.0457 -0.3157  0.1069
   35DOPC   O11 4716   4.241   5.756   5.404  0.5963 -0.0758 -0.2918
   35DOPC    C1 4717   4.341   5.862   5.397  0.1917  0.4831 -0.0072
   35DOPC    HA 4718   4.419   5.852   5.475  0.1652 -2.4468 -0.2588
   35DOPC    HB 4719   4.287   5.958   5.411 -0.2988 -0.0095  1.6217
   35DOPC    C2 4720   4.413   5.861   5.258 -0.3431 -0.7052  0.6464
   35DOPC    HS 4721   4.500   5.930   5.270 -1.1121  0.4818 -0.3634
   35DOPC   O21 4722   4.323   5.909   5.156 -0.4027  0.3422  0.3379
   35DOPC   C21 4723   4.322   6.036   5.136  0.0461  1.3212 -0.2935
   35DOPC   O22 4724   4.383   6.122   5.194 -0.3212  0.2289  0.1634
   35DOPC   C22 4725   4.223   6.066   5.028  1.1878 -0.1838 -0.1431
   35DOPC   H2R 4726   4.246   6.171   5.000  0.3463  0.9707  3.0486
   35DOPC   H2S 4727   4.127   6.059   5.083  1.2681  0.1135  0.0368
   35DOPC    C3 4728   4.467   5.725   5.217 -0.0078  0.5432  1.1295
   35DOPC    HX 4729   4.376   5.667   5.192  0.1041  1.5866 -2.3164
   35DOPC    HY 4730   4.527   5.683   5.300  0.9459  1.6600  1.0405
   35DOPC   O31 4731   4.557   5.728   5.096 -0.0011 -0.1386 -0.9688
   35DOPC   C31 4732   4.602   5.606   5.069  0.2441 -1.3676  0.7793
   35DOPC   O32 4733   4.577   5.505   5.136 -0.0956 -0.1149 -0.1429
   35DOPC   C32 4734   4.694   5.615   4.955  0.4035 -0.3183 -0.2632
   35DOPC   H2X 4735   4.679   5.712   4.902  2.4272 -0.0326 -0.3977
   35DOPC   H2Y 4736   4.792   5.644   4.998 -0.6768  3.2348  0.1481
   35DOPC   C23 4737   4.234   5.969   4.902  0.2079 -0.1222 -0.1568
   35DOPC   H3R 4738   4.155   5.999   4.830  1.8733  0.4741 -1.7973
   35DOPC   H3S 4739   4.213   5.865   4.935  0.3689  0.4134  1.7465
   35DOPC   C24 4740   4.369   5.964   4.827 -0.2100  0.7659  0.5679
   35DOPC   H4R 4741   4.451   5.934   4.896 -1.2537 -0.0387  1.5072
   35DOPC   H4S 4742   4.393   6.065   4.789  0.4669  1.3233  2.3913
   35DOPC   C25 4743   4.375   5.861   4.709 -0.4215 -0.3362  0.2038
   35DOPC   H5R 4744   4.356   5.761   4.754  2.9393  0.0014  2.8518
   35DOPC   H5S 4745   4.478   5.857   4.665  0.0441  0.6248  1.1711
   35DOPC   C26 4746   4.270   5.886   4.594  0.1664  0.0963 -0.1576
   35DOPC   H6R 4747   4.289   5.985   4.546 -1.8540  0.7635  0.3464
   35DOPC   H6S 4748   4.166   5.897   4.631 -0.2829 -0.2616 -1.2673
   35DOPC   C27 4749   4.275   5.780   4.480  0.0269 -0.0220  0.6634
   35DOPC   H7R 4750   4.376   5.791   4.435 -0.0150  0.0755  0.5917
   35DOPC   H7S 4751   4.196   5.808   4.407  1.1048 -1.1590 -1.0139
   35DOPC   C28 4752   4.256   5.639   4.526 -0.0249 -0.6712 -0.3912
   35DOPC   H8R 4753   4.327   5.613   4.607  2.7579  2.8167 -1.4562
   35DOPC   H8S 4754   4.284   5.566   4.447  1.2516 -0.1720 -0.4256
   35DOPC   C29 4755   4.110   5.616   4.558  0.0537 -0.3773  0.5690
   35DOPC   H9R 4756   4.051   5.633   4.467 -0.5771 -0.1506  1.0207
   35DOPC  C210 4757   4.058   5.573   4.679  0.0565  0.0983  0.2948
   35DOPC  H10R 4758   3.953   5.547   4.696  0.4567 -1.8653 -0.0154
   35DOPC  C211 4759   4.146   5.546   4.799  0.0853 -0.3092 -0.2649
   35DOPC  H11R 4760   4.090   5.581   4.889 -0.1011 -1.3879  0.0437
   35DOPC  H11S 4761   4.243   5.600   4.811  0.1980 -0.5152 -0.2473
   35DOPC  C212 4762   4.189   5.395   4.818  0.2623 -1.1135  0.3974
   35DOPC  H12R 4763   4.245   5.362   4.728 -0.9117 -0.7735 -0.4932
   35DOPC  H12S 4764   4.099   5.330   4.823 -0.6453 -0.3493 -3.1242
   35DOPC  C213 4765   4.276   5.376   4.942  0.4543  0.2453 -0.6304
   35DOPC  H13R 4766   4.219   5.410   5.031  0.5537 -1.7819  0.2809
   35DOPC  H13S 4767   4.369   5.436   4.939 -0.8977  2.4035 -1.7402
   35DOPC  C214 4768   4.320   5.233   4.966 -0.0437 -0.0144  0.1528
   35DOPC  H14R 4769   4.229   5.172   4.986  0.5703 -1.6754 -1.7182
   35DOPC  H14S 4770   4.375   5.235   5.062 -1.0778  2.9539  0.7739
   35DOPC  C215 4771   4.401   5.167   4.856 -0.0446 -0.3704  0.0968
   35DOPC  H15R 4772   4.506   5.199   4.875  0.0087 -0.8629  0.6626
   35DOPC  H15S 4773   4.368   5.199   4.755  0.8093  1.2422  0.3027
   35DOPC  C216 4774   4.407   5.009   4.863 -0.0485 -0.2608 -0.5052
   35DOPC  H16R 4775   4.304   4.977   4.837  0.2558 -1.6664 -0.0526
   35DOPC  H16S 4776   4.431   4.974   4.966 -3.6608  0.0511  0.5782
   35DOPC  C217 4777   4.508   4.954   4.764 -0.1394  0.4636  0.0476
   35DOPC  H17R 4778   4.608   4.947   4.813 -0.3261  0.0748  0.3791
   35DOPC  H17S 4779   4.530   5.018   4.676  1.5840 -2.7650 -2.0523
   35DOPC  C218 4780   4.474   4.810   4.714  0.1985 -0.5514 -0.5073
   35DOPC  H18R 4781   4.512   4.788   4.612 -0.1005 -0.4999 -0.6312
   35DOPC  H18S 4782   4.364   4.801   4.701  0.0096  0.3563  0.3225
   35DOPC  H18T 4783   4.515   4.738   4.787  1.5280  1.2317  0.5977
   35DOPC   C33 4784   4.688   5.505   4.858  0.4389 -0.4238 -0.0925
   35DOPC   H3X 4785   4.665   5.403   4.897 -0.8798  0.3040  1.1000
   35DOPC   H3Y 4786   4.790   5.504   4.813  0.8764  2.2306  0.6983
   35DOPC   C34 4787   4.584   5.526   4.742 -0.1341  0.5261  0.0279
   35DOPC   H4X 4788   4.599   5.628   4.703  0.6541  0.6656  0.6737
   35DOPC   H4Y 4789   4.482   5.526   4.785 -1.0561 -0.4916 -1.9852
   35DOPC   C35 4790   4.607   5.424   4.627  0.3147  0.5990  0.4210
   35DOPC   H5X 4791   4.511   5.401   4.578 -0.1903  1.3544  1.0385
   35DOPC   H5Y 4792   4.635   5.321   4.660 -2.9055 -1.3904 -2.4096
   35DOPC   C36 4793   4.708   5.467   4.516  0.3416 -0.6802  0.4359
   35DOPC   H6X 4794   4.812   5.485   4.550  0.7013 -0.0671 -0.9389
   35DOPC   H6Y 4795   4.708   5.384   4.443 -1.4126 -0.5536  0.2466
   35DOPC   C37 4796   4.650   5.597   4.444  0.3840 -0.2363 -0.3395
   35DOPC   H7X 4797   4.544   5.587   4.412 -0.8065  3.3625  1.8958
   35DOPC   H7Y 4798   4.643   5.682   4.515  3.7750 -0.6025  0.6093
   35DOPC   C38 4799   4.726   5.636   4.318 -0.3655  0.2713  0.2774
   35DOPC   H8X 4800   4.728   5.550   4.248 -2.9702  1.3742 -1.3125
   35DOPC   H8Y 4801   4.830   5.656   4.352 -0.1481 -0.9468  0.3831
   35DOPC   C39 4802   4.668   5.765   4.252  0.0230  0.4535 -0.7224
   35DOPC   H9X 4803   4.645   5.851   4.316  0.3437 -0.9318  1.3464
   35DOPC  C310 4804   4.638   5.779   4.124 -0.6328 -0.3237 -0.5580
   35DOPC  H10X 4805   4.604   5.874   4.082 -0.8727 -1.2452 -2.5415
   35DOPC  C311 4806   4.658   5.685   4.015 -1.0312  0.1907  0.5025
   35DOPC  H11X 4807   4.718   5.598   4.050 -0.7350 -0.4221 -1.4165
   35DOPC  H11Y 4808   4.705   5.727   3.924 -2.5814 -0.7136 -0.7833
   35DOPC  C312 4809   4.522   5.629   3.968  0.1960 -0.2024 -0.6059
   35DOPC  H12X 4810   4.541   5.545   3.898 -1.6032  0.6015 -2.1450
   35DOPC  H12Y 4811   4.467   5.712   3.919  0.4612 -1.3398 -2.9595
   35DOPC  C313 4812   4.439   5.570   4.084 -0.1210  0.2370 -0.3774
   35DOPC  H13X 4813   4.500   5.509   4.153 -0.6254  1.6828  1.4267
   35DOPC  H13Y 4814   4.402   5.658   4.140  1.2136  1.2887 -1.0781
   35DOPC  C314 4815   4.323   5.488   4.039  0.3467  0.8877 -0.2086
   35DOPC  H14X 4816   4.269   5.549   3.964 -1.4898  0.3988  0.6494
   35DOPC  H14Y 4817   4.359   5.402   3.979 -1.2322 -0.1719  0.3068
   35DOPC  C315 4818   4.226   5.439   4.149 -1.4486 -0.0619 -0.1415
   35DOPC  H15X 4819   4.209   5.529   4.213 -1.5317 -0.4731  0.4190
   35DOPC  H15Y 4820   4.268   5.358   4.211 -1.9131  1.0510  1.7099
   35DOPC  C316 4821   4.083   5.392   4.100  0.0699  0.3090  0.2110
   35DOPC  H16X 4822   4.033   5.403   4.198  1.2019 -2.2446  1.1802
   35DOPC  H16Y 4823   4.040   5.468   4.031  3.4999  1.9390 -0.3515
   35DOPC  C317 4824   4.064   5.247   4.055  0.4804  0.1898  0.4979
   35DOPC  H17X 4825   4.058   5.239   3.945 -1.6893 -0.2072  0.5920
   35DOPC  H17Y 4826   4.153   5.193   4.094 -0.9151  0.0665  3.9208
   35DOPC  C318 4827   3.935   5.187   4.109  0.3196  0.3835  0.2060
   35DOPC  H18X 4828   3.839   5.232   4.075 -0.9418 -0.4364  2.4738
   35DOPC  H18Y 4829   3.934   5.081   4.077 -0.3659  0.7185 -0.9201
   35DOPC  H18Z 4830   3.942   5.191   4.220  0.5855  2.1880  0.1514
   36DOPC     N 4831   0.596   3.528   5.646  0.6876 -0.1560  0.0026
   36DOPC   C12 4832   0.538   3.594   5.515 -0.5313  0.1948 -0.0679
   36DOPC  H12A 4833   0.624   3.636   5.464  0.4115 -0.2092  1.1576
   36DOPC  H12B 4834   0.479   3.679   5.546 -1.6131 -0.1666 -1.0694
   36DOPC   C13 4835   0.481   3.490   5.739 -0.1250  0.4802  0.0719
   36DOPC  H13A 4836   0.519   3.467   5.838 -1.3693 -0.8662  0.2607
   36DOPC  H13B 4837   0.412   3.573   5.747 -1.9968 -1.0360  0.2532
   36DOPC  H13C 4838   0.433   3.403   5.698  0.1656  1.0083 -1.4457
   36DOPC   C14 4839   0.682   3.629   5.716  1.2298 -0.5861  0.2516
   36DOPC  H14A 4840   0.714   3.593   5.812 -0.2925  0.3561  1.1523
   36DOPC  H14B 4841   0.771   3.660   5.663 -0.2829  0.6830 -1.6967
   36DOPC  H14C 4842   0.623   3.713   5.750  3.2126  0.1334  2.1124
   36DOPC   C15 4843   0.676   3.405   5.620 -0.2306 -1.0621 -0.6281
   36DOPC  H15A 4844   0.612   3.335   5.569  0.0838 -1.6155 -0.2775
   36DOPC  H15B 4845   0.717   3.358   5.708  0.5882 -1.8773 -1.4163
   36DOPC  H15C 4846   0.759   3.424   5.553  1.9275 -3.7676  1.0676
   36DOPC   C11 4847   0.463   3.501   5.413  0.0632 -0.3444  0.1622
   36DOPC  H11A 4848   0.363   3.483   5.457  0.0864  0.1048  0.4021
   36DOPC  H11B 4849   0.449   3.552   5.315  0.3629 -1.1771 -0.3205
   36DOPC     P 4850   0.481   3.252   5.307  0.4503 -0.4067  0.1769
   36DOPC   O13 4851   0.349   3.207   5.354  0.2407  0.2992 -0.5500
   36DOPC   O14 4852   0.578   3.145   5.311 -0.4166 -0.2296  0.4099
   36DOPC   O12 4853   0.532   3.375   5.389 -0.2509  0.1257  0.5223
   36DOPC   O11 4854   0.462   3.309   5.160 -0.9915 -0.7154 -0.0914
   36DOPC    C1 4855   0.577   3.324   5.078 -0.5758 -0.7025 -0.5135
   36DOPC    HA 4856   0.669   3.290   5.130 -0.8765  1.0188  1.2349
   36DOPC    HB 4857   0.595   3.433   5.063  1.0742 -0.7152  1.0558
   36DOPC    C2 4858   0.557   3.248   4.952  0.3154  0.6135 -0.2235
   36DOPC    HS 4859   0.654   3.224   4.902  1.3043 -1.1430  2.3448
   36DOPC   O21 4860   0.475   3.324   4.864  0.3499  0.4535 -0.6036
   36DOPC   C21 4861   0.528   3.438   4.819 -0.2767 -0.0284  0.3121
   36DOPC   O22 4862   0.642   3.480   4.831 -0.6561  0.3471 -0.2667
   36DOPC   C22 4863   0.421   3.527   4.745 -0.4497 -0.6476  0.4463
   36DOPC   H2R 4864   0.351   3.563   4.822 -0.2521 -0.8240  0.7114
   36DOPC   H2S 4865   0.353   3.454   4.695 -0.5247 -1.6894  2.0046
   36DOPC    C3 4866   0.493   3.104   4.975 -0.5648  0.3854 -0.3719
   36DOPC    HX 4867   0.398   3.110   5.033 -0.7811 -0.2142 -0.6587
   36DOPC    HY 4868   0.565   3.052   5.041  0.5103  2.7766  0.4606
   36DOPC   O31 4869   0.464   3.036   4.855 -0.6826  0.0919  0.0654
   36DOPC   C31 4870   0.566   2.980   4.786 -0.4000  0.3174  0.4489
   36DOPC   O32 4871   0.685   2.994   4.811 -0.2374 -0.1119 -0.4179
   36DOPC   C32 4872   0.527   2.907   4.652  0.5546 -0.0485  0.7140
   36DOPC   H2X 4873   0.450   2.835   4.689 -1.4978  1.8081  0.2394
   36DOPC   H2Y 4874   0.476   2.989   4.598  2.8778  0.2298 -1.2549
   36DOPC   C23 4875   0.467   3.644   4.652 -0.6464 -0.0975 -0.4166
   36DOPC   H3R 4876   0.505   3.608   4.554  0.6523 -2.3472  0.8204
   36DOPC   H3S 4877   0.544   3.700   4.708 -1.6643  1.6960 -0.7506
   36DOPC   C24 4878   0.358   3.736   4.618  0.2061  0.5368 -0.4803
   36DOPC   H4R 4879   0.319   3.788   4.708  0.6877 -2.2963  1.4976
   36DOPC   H4S 4880   0.283   3.674   4.564  1.3857 -0.6427 -0.8166
   36DOPC   C25 4881   0.393   3.852   4.519 -0.4100 -0.3620 -0.0811
   36DOPC   H5R 4882   0.430   3.803   4.426  0.2760  0.6190 -0.3416
   36DOPC   H5S 4883   0.479   3.907   4.562  0.2115 -2.2947  1.2767
   36DOPC   C26 4884   0.274   3.941   4.485  0.7199  0.2457 -0.3067
   36DOPC   H6R 4885   0.181   3.883   4.468 -0.1890  2.1734 -2.5970
   36DOPC   H6S 4886   0.302   3.989   4.389 -0.5315 -2.1400 -1.9538
   36DOPC   C27 4887   0.237   4.038   4.597 -0.0916 -0.3761  0.2244
   36DOPC   H7R 4888   0.234   3.995   4.699  0.3767  0.4148  0.5865
   36DOPC   H7S 4889   0.134   4.067   4.567 -0.1423 -0.6161  0.1684
   36DOPC   C28 4890   0.325   4.165   4.588 -0.0730  0.4169 -0.0772
   36DOPC   H8R 4891   0.315   4.216   4.490 -0.8017 -2.1496 -1.4252
   36DOPC   H8S 4892   0.429   4.126   4.588 -0.5756 -1.0102 -1.2652
   36DOPC   C29 4893   0.305   4.261   4.704  1.0103 -0.1548  0.0478
   36DOPC   H9R 4894   0.352   4.233   4.799 -0.3333 -1.2993  0.4092
   36DOPC  C210 4895   0.255   4.385   4.688  0.3178 -0.0209  0.2218
   36DOPC  H10R 4896   0.231   4.448   4.775 -0.3701 -0.5892  0.4451
   36DOPC  C211 4897   0.193   4.448   4.559  0.0973  0.5976  0.5947
   36DOPC  H11R 4898   0.105   4.512   4.581 -1.7430 -0.9188 -1.9686
   36DOPC  H11S 4899   0.148   4.384   4.480 -1.1914 -0.1112  1.8600
   36DOPC  C212 4900   0.304   4.525   4.492  0.1316  0.1204 -0.3326
   36DOPC  H12R 4901   0.252   4.566   4.403 -2.3046 -2.1343 -0.0630
   36DOPC  H12S 4902   0.386   4.460   4.454  0.0351  0.3535 -0.9410
   36DOPC  C213 4903   0.357   4.638   4.584 -0.3015  0.2174  0.7313
   36DOPC  H13R 4904   0.418   4.596   4.667  1.1278 -0.8527 -0.7871
   36DOPC  H13S 4905   0.266   4.688   4.623 -0.6464 -0.7835  1.2300
   36DOPC  C214 4906   0.433   4.740   4.498  0.3537 -0.7297 -0.2742
   36DOPC  H14R 4907   0.378   4.754   4.402  2.5180  1.5686 -1.2802
   36DOPC  H14S 4908   0.533   4.702   4.471  0.7381  0.0300  0.0493
   36DOPC  C215 4909   0.473   4.878   4.546 -0.7827 -0.4693 -0.0905
   36DOPC  H15R 4910   0.543   4.874   4.632  1.4595  1.9287 -1.6467
   36DOPC  H15S 4911   0.385   4.928   4.592 -0.6912  0.9869 -1.4107
   36DOPC  C216 4912   0.547   4.959   4.436  0.7760 -0.1932  0.7463
   36DOPC  H16R 4913   0.534   5.065   4.465 -1.6972 -0.5623  1.1751
   36DOPC  H16S 4914   0.507   4.942   4.334  0.3799  1.7558  0.5430
   36DOPC  C217 4915   0.705   4.945   4.433  1.0974  0.1303  0.4168
   36DOPC  H17R 4916   0.723   4.836   4.424 -1.2555 -0.4400  1.7178
   36DOPC  H17S 4917   0.746   4.977   4.531  0.9859 -1.2427  0.9386
   36DOPC  C218 4918   0.763   5.037   4.330 -0.3132 -0.1073  0.1023
   36DOPC  H18R 4919   0.722   5.006   4.231  0.0035 -0.0951 -0.0364
   36DOPC  H18S 4920   0.872   5.017   4.320 -0.5028 -1.0188 -0.2678
   36DOPC  H18T 4921   0.745   5.145   4.349 -0.8237 -0.5051  2.0929
   36DOPC   C33 4922   0.630   2.822   4.566 -0.5962  0.5610  0.1540
   36DOPC   H3X 4923   0.578   2.740   4.512  2.0537 -1.0961 -0.0566
   36DOPC   H3Y 4924   0.712   2.787   4.633  1.4708  0.8175 -2.0779
   36DOPC   C34 4925   0.707   2.904   4.453  0.1086 -0.1169 -0.4147
   36DOPC   H4X 4926   0.760   2.989   4.501  0.6285 -0.9621  0.5545
   36DOPC   H4Y 4927   0.634   2.951   4.383  0.2483  2.3164  0.9611
   36DOPC   C35 4928   0.804   2.810   4.377 -0.7610 -0.4536  0.1787
   36DOPC   H5X 4929   0.736   2.730   4.340 -1.3885  0.6888 -1.2373
   36DOPC   H5Y 4930   0.878   2.773   4.451  0.3342  0.5134 -0.3993
   36DOPC   C36 4931   0.889   2.881   4.271 -0.3918 -0.5074 -0.8705
   36DOPC   H6X 4932   0.933   2.972   4.316  0.2709 -0.5023 -1.5262
   36DOPC   H6Y 4933   0.974   2.813   4.250 -0.2901 -0.8122  0.4421
   36DOPC   C37 4934   0.814   2.907   4.141 -0.2312  0.4055  0.9909
   36DOPC   H7X 4935   0.781   2.810   4.099  3.3021 -0.6275  0.3194
   36DOPC   H7Y 4936   0.732   2.978   4.167 -1.6940 -0.1717 -1.6782
   36DOPC   C38 4937   0.908   2.980   4.040 -0.2125  0.4061  0.2626
   36DOPC   H8X 4938   1.006   2.929   4.029  1.7052  3.6825  0.7583
   36DOPC   H8Y 4939   0.938   3.074   4.091  0.9662 -0.8244  1.9727
   36DOPC   C39 4940   0.831   3.011   3.919  0.3275 -0.4184 -0.3918
   36DOPC   H9X 4941   0.743   3.073   3.942 -0.4593 -2.5867  3.1660
   36DOPC  C310 4942   0.858   2.999   3.794  0.3148  0.0395  0.1840
   36DOPC  H10X 4943   0.789   3.045   3.722 -0.4102  0.3046  1.0278
   36DOPC  C311 4944   0.981   2.937   3.719 -0.4449 -0.3051  0.0172
   36DOPC  H11X 4945   1.068   2.928   3.788 -1.3079  1.0322  1.3437
   36DOPC  H11Y 4946   1.002   2.993   3.626 -0.6879 -0.0487  0.1117
   36DOPC  C312 4947   0.943   2.794   3.677 -0.1755  0.3505 -0.1566
   36DOPC  H12X 4948   0.844   2.793   3.626  0.2932  0.3799 -1.0869
   36DOPC  H12Y 4949   0.925   2.726   3.763 -1.3022  0.0654 -0.6000
   36DOPC  C313 4950   1.057   2.730   3.596  0.2417 -0.4421  0.1393
   36DOPC  H13X 4951   1.154   2.725   3.651 -0.7133  2.0351  2.2835
   36DOPC  H13Y 4952   1.022   2.628   3.572  1.7312 -1.4937  2.0887
   36DOPC  C314 4953   1.063   2.784   3.448  0.1495  0.0618  0.0240
   36DOPC  H14X 4954   0.962   2.768   3.405 -0.1738 -1.3541  1.1897
   36DOPC  H14Y 4955   1.095   2.890   3.451  0.1322  0.0463  1.1970
   36DOPC  C315 4956   1.153   2.705   3.352 -0.9967 -0.1159  0.3273
   36DOPC  H15X 4957   1.138   2.595   3.353 -1.4827 -0.0496  0.4321
   36DOPC  H15Y 4958   1.260   2.716   3.379 -1.1343  1.8914  0.1984
   36DOPC  C316 4959   1.148   2.741   3.195 -0.7123 -0.0036 -0.4461
   36DOPC  H16X 4960   1.166   2.851   3.190  0.6628 -0.2238 -0.5604
   36DOPC  H16Y 4961   1.236   2.692   3.149 -1.3908 -2.8003  1.0319
   36DOPC  C317 4962   1.012   2.698   3.128  0.2107 -0.5446 -0.1661
   36DOPC  H17X 4963   0.997   2.590   3.148  2.8035 -1.0310 -0.5290
   36DOPC  H17Y 4964   0.927   2.756   3.170  0.9897 -0.2030  0.9770
   36DOPC  C318 4965   1.024   2.716   2.972 -0.3253 -0.1953 -0.1779
   36DOPC  H18X 4966   0.927   2.692   2.924 -1.8171  1.7266  1.6938
   36DOPC  H18Y 4967   1.069   2.814   2.947  1.2566  0.2003  3.4956
   36DOPC  H18Z 4968   1.094   2.637   2.937  1.9234  2.7926 -2.9634
   37DOPC     N 4969   6.875   0.466   5.311 -0.4971 -0.0769  0.0214
   37DOPC   C12 4970   7.014   0.435   5.256 -0.5444 -0.0203  0.0795
   37DOPC  H12A 4971   7.013   0.362   5.177  2.4106  1.5280 -1.5413
   37DOPC  H12B 4972   7.070   0.390   5.336 -0.5752  0.2167  0.2340
   37DOPC   C13 4973   6.895   0.542   5.448  0.1185  0.3705  0.5373
   37DOPC  H13A 4974   6.959   0.495   5.521  0.9201  1.1294  0.3408
   37DOPC  H13B 4975   6.939   0.639   5.431  1.0924 -0.2282 -0.5152
   37DOPC  H13C 4976   6.799   0.548   5.496  0.4018 -0.4297  1.2253
   37DOPC   C14 4977   6.800   0.347   5.344  0.5202  0.4401 -0.5512
   37DOPC  H14A 4978   6.857   0.297   5.420 -1.3797 -2.2073 -0.7223
   37DOPC  H14B 4979   6.706   0.380   5.386  0.8450  0.4068  0.2138
   37DOPC  H14C 4980   6.770   0.279   5.265  2.1083 -1.5442  0.4600
   37DOPC   C15 4981   6.805   0.557   5.217  0.0908 -0.7244  0.2798
   37DOPC  H15A 4982   6.724   0.605   5.272 -1.4317 -0.0956 -2.3510
   37DOPC  H15B 4983   6.773   0.514   5.124  1.3379  1.3469 -1.1825
   37DOPC  H15C 4984   6.849   0.652   5.193 -0.9055 -0.2902  0.0885
   37DOPC   C11 4985   7.098   0.557   5.211 -0.5068 -0.4784  0.1138
   37DOPC  H11A 4986   7.176   0.513   5.146  0.2611 -1.4485  1.6138
   37DOPC  H11B 4987   7.043   0.626   5.143  0.2073  0.3478  0.3663
   37DOPC     P 4988   7.261   0.566   5.415 -0.5382 -0.2615  0.2100
   37DOPC   O13 4989   7.219   0.432   5.461 -0.4114 -0.3566  0.1856
   37DOPC   O14 4990   7.300   0.664   5.521 -0.4449  0.1210 -0.7645
   37DOPC   O12 4991   7.153   0.632   5.320  0.1833 -0.6622 -0.5660
   37DOPC   O11 4992   7.380   0.557   5.318 -0.9806 -0.2605  0.3836
   37DOPC    C1 4993   7.434   0.678   5.259  0.4915  0.0880 -0.7684
   37DOPC    HA 4994   7.469   0.750   5.335 -0.4263 -2.3780  2.1972
   37DOPC    HB 4995   7.348   0.730   5.211  0.0728  1.9882  1.8423
   37DOPC    C2 4996   7.546   0.643   5.163 -0.3464  0.1773  0.5857
   37DOPC    HS 4997   7.585   0.733   5.111 -2.1968 -1.4738 -4.2734
   37DOPC   O21 4998   7.523   0.547   5.065  0.1516 -0.4550 -0.2628
   37DOPC   C21 4999   7.450   0.589   4.969  0.2135  0.3887 -0.2980
   37DOPC   O22 5000   7.405   0.702   4.956  0.3639 -0.5469 -0.1255
   37DOPC   C22 5001   7.441   0.476   4.871 -0.2172 -0.1139  0.1399
   37DOPC   H2R 5002   7.368   0.402   4.910 -1.9429  2.2859  1.7226
   37DOPC   H2S 5003   7.547   0.442   4.868 -0.6144 -1.3801  0.1102
   37DOPC    C3 5004   7.667   0.586   5.242 -0.7214 -0.3739 -0.4762
   37DOPC    HX 5005   7.639   0.491   5.292 -0.3119 -0.2080  0.0861
   37DOPC    HY 5006   7.685   0.661   5.323  1.1449  0.0634 -1.2276
   37DOPC   O31 5007   7.788   0.581   5.160  0.0998  0.0835  0.2775
   37DOPC   C31 5008   7.869   0.476   5.182  0.2353 -0.1685  0.4629
   37DOPC   O32 5009   7.870   0.397   5.278 -0.5246  0.2759  0.1589
   37DOPC   C32 5010   7.965   0.461   5.066  0.1295  0.7072  0.7957
   37DOPC   H2X 5011   8.005   0.565   5.057 -0.7814  1.1855  1.9485
   37DOPC   H2Y 5012   8.049   0.394   5.096  0.1749 -0.0340 -0.8829
   37DOPC   C23 5013   7.398   0.515   4.726  0.5454 -0.9090 -0.4788
   37DOPC   H3R 5014   7.449   0.608   4.692  0.8206 -0.8794  0.0113
   37DOPC   H3S 5015   7.288   0.530   4.716  0.9422  0.5789 -4.1114
   37DOPC   C24 5016   7.438   0.410   4.624  0.0772 -0.8298  0.6010
   37DOPC   H4R 5017   7.392   0.310   4.643  0.6447 -0.8353  1.9989
   37DOPC   H4S 5018   7.548   0.396   4.623 -0.0036 -1.5437  0.9274
   37DOPC   C25 5019   7.395   0.467   4.488 -0.2109 -0.2414  0.4832
   37DOPC   H5R 5020   7.471   0.537   4.449 -1.0654 -0.1266 -1.0400
   37DOPC   H5S 5021   7.304   0.530   4.488 -0.6257 -0.8281  0.0526
   37DOPC   C26 5022   7.386   0.365   4.381 -0.1775 -0.4664  0.1200
   37DOPC   H6R 5023   7.335   0.275   4.421  1.5918 -1.1733  0.8849
   37DOPC   H6S 5024   7.487   0.325   4.359  0.5079  0.8199  0.8606
   37DOPC   C27 5025   7.314   0.420   4.260 -0.5629 -0.0962 -0.3364
   37DOPC   H7R 5026   7.371   0.510   4.228  3.4114 -2.7080 -1.3210
   37DOPC   H7S 5027   7.213   0.453   4.291 -1.1667 -2.2292  0.0814
   37DOPC   C28 5028   7.302   0.327   4.143  0.9051  0.3253  0.2696
   37DOPC   H8R 5029   7.239   0.239   4.170 -0.2966  1.0947  0.0873
   37DOPC   H8S 5030   7.397   0.284   4.107  0.6817  0.8873 -1.0393
   37DOPC   C29 5031   7.234   0.390   4.023 -0.0557 -0.4300  0.1571
   37DOPC   H9R 5032   7.138   0.437   4.050  0.4040  1.3646 -1.1332
   37DOPC  C210 5033   7.278   0.400   3.898  0.4005  0.7207 -0.2329
   37DOPC  H10R 5034   7.221   0.450   3.819  0.0214  1.7043  0.6215
   37DOPC  C211 5035   7.410   0.331   3.863 -0.0599  0.1579  0.2617
   37DOPC  H11R 5036   7.420   0.241   3.927 -0.7427  1.1646  1.8524
   37DOPC  H11S 5037   7.491   0.405   3.881 -0.7418  0.9055  0.3270
   37DOPC  C212 5038   7.412   0.287   3.714 -0.3856 -0.1573 -0.0379
   37DOPC  H12R 5039   7.309   0.252   3.690 -0.3925  1.0290 -1.9290
   37DOPC  H12S 5040   7.487   0.208   3.695 -0.1989 -0.1346  0.5895
   37DOPC  C213 5041   7.442   0.403   3.617  0.2410 -0.9298  0.7365
   37DOPC  H13R 5042   7.549   0.414   3.588 -0.6852 -1.4157 -3.6001
   37DOPC  H13S 5043   7.414   0.501   3.659  1.1586  0.2404 -1.2457
   37DOPC  C214 5044   7.364   0.377   3.482 -0.0467 -0.6603  1.1260
   37DOPC  H14R 5045   7.273   0.314   3.492 -1.3091  1.2892  2.6407
   37DOPC  H14S 5046   7.435   0.324   3.415 -0.9154  0.5475 -0.8575
   37DOPC  C215 5047   7.318   0.509   3.413 -0.2218  0.7140  0.1054
   37DOPC  H15R 5048   7.258   0.558   3.493  0.9402 -1.4149  2.4583
   37DOPC  H15S 5049   7.261   0.481   3.323 -0.0424 -0.4871  0.3524
   37DOPC  C216 5050   7.436   0.596   3.372  0.2203  0.1616 -0.2323
   37DOPC  H16R 5051   7.505   0.535   3.309 -0.1421 -0.2127 -0.2757
   37DOPC  H16S 5052   7.487   0.615   3.469 -1.3881 -2.0656  1.1740
   37DOPC  C217 5053   7.390   0.725   3.308  0.4220  0.2558  0.1840
   37DOPC  H17R 5054   7.328   0.784   3.379  2.2759  1.8337  0.5785
   37DOPC  H17S 5055   7.331   0.696   3.218 -4.4248  1.2562  2.6820
   37DOPC  C218 5056   7.507   0.816   3.257  0.2037  0.4686 -0.6054
   37DOPC  H18R 5057   7.590   0.807   3.330  0.3185  3.3074 -0.2917
   37DOPC  H18S 5058   7.483   0.924   3.263 -0.4469  0.3138 -0.3277
   37DOPC  H18T 5059   7.552   0.788   3.159  0.9091 -0.1910 -0.1058
   37DOPC   C33 5060   7.898   0.399   4.943  0.0557  0.3781 -0.2812
   37DOPC   H3X 5061   7.819   0.467   4.903 -0.9958 -0.6848 -0.0994
   37DOPC   H3Y 5062   7.850   0.303   4.973  0.6452 -0.2275 -1.2267
   37DOPC   C34 5063   7.988   0.345   4.825 -0.0985 -0.0515  0.5469
   37DOPC   H4X 5064   8.041   0.257   4.867 -0.3012 -1.2337 -1.5241
   37DOPC   H4Y 5065   8.050   0.434   4.798  1.3338 -1.4610 -1.0537
   37DOPC   C35 5066   7.906   0.292   4.709  0.4006  0.0424  0.3655
   37DOPC   H5X 5067   7.826   0.221   4.739  1.9083 -1.1326  1.7865
   37DOPC   H5Y 5068   7.972   0.225   4.649  0.7933 -1.9149  2.8216
   37DOPC   C36 5069   7.854   0.391   4.602 -0.7944  0.2951  0.0550
   37DOPC   H6X 5070   7.772   0.451   4.647 -2.1696 -2.4458  1.4031
   37DOPC   H6Y 5071   7.939   0.453   4.566 -0.2735 -1.0441 -1.1272
   37DOPC   C37 5072   7.788   0.326   4.475 -0.2696  0.1717  0.4942
   37DOPC   H7X 5073   7.733   0.235   4.504  3.0691 -2.1348  0.1780
   37DOPC   H7Y 5074   7.717   0.407   4.448  2.0108  3.1014  2.5826
   37DOPC   C38 5075   7.887   0.299   4.354  0.1048  0.0519  0.2066
   37DOPC   H8X 5076   7.969   0.234   4.390 -1.2112 -1.1979  1.0881
   37DOPC   H8Y 5077   7.928   0.398   4.323 -2.6770  0.8236 -1.3764
   37DOPC   C39 5078   7.800   0.229   4.249 -0.7986  0.0336  0.0498
   37DOPC   H9X 5079   7.806   0.119   4.240  1.4848  0.2358 -1.8235
   37DOPC  C310 5080   7.725   0.296   4.156  0.5124 -0.2198  0.4874
   37DOPC  H10X 5081   7.658   0.236   4.093  0.0183  0.5065  0.3169
   37DOPC  C311 5082   7.702   0.445   4.138 -0.0727 -0.1284  0.5322
   37DOPC  H11X 5083   7.710   0.488   4.240  1.0371 -1.3772  0.9974
   37DOPC  H11Y 5084   7.598   0.456   4.099  0.1302  1.1525  0.3226
   37DOPC  C312 5085   7.779   0.531   4.041  0.2360  0.1858  0.1407
   37DOPC  H12X 5086   7.886   0.540   4.068 -0.1367 -0.5536  2.0226
   37DOPC  H12Y 5087   7.725   0.627   4.028  0.2970  0.2477  0.3346
   37DOPC  C313 5088   7.783   0.463   3.901  0.4109  0.3497 -0.1725
   37DOPC  H13X 5089   7.853   0.376   3.900 -2.3289 -2.0284  0.1368
   37DOPC  H13Y 5090   7.686   0.422   3.865 -0.0590  1.1249  0.1900
   37DOPC  C314 5091   7.828   0.567   3.801  0.3670 -0.3398 -0.2958
   37DOPC  H14X 5092   7.754   0.649   3.811  0.6509  0.0936 -1.5927
   37DOPC  H14Y 5093   7.926   0.606   3.836 -0.0246  1.2290 -0.8453
   37DOPC  C315 5094   7.826   0.511   3.659  0.8264  0.1936 -1.1207
   37DOPC  H15X 5095   7.795   0.593   3.590  0.3956  1.8191  0.8997
   37DOPC  H15Y 5096   7.754   0.427   3.651  1.3443 -1.0189  3.7102
   37DOPC  C316 5097   7.961   0.446   3.616  0.7452  0.3682 -0.1303
   37DOPC  H16X 5098   7.979   0.363   3.687 -0.1449 -0.2299 -0.5897
   37DOPC  H16Y 5099   7.959   0.398   3.515  0.6042  1.8749 -0.8701
   37DOPC  C317 5100   8.084   0.543   3.613 -0.4216  0.2562  0.0770
   37DOPC  H17X 5101   8.067   0.637   3.555 -2.4028 -0.0313  0.1083
   37DOPC  H17Y 5102   8.079   0.584   3.717  0.3702 -2.5934  1.3319
   37DOPC  C318 5103   8.215   0.468   3.594 -0.7550  0.3283 -0.4830
   37DOPC  H18X 5104   8.220   0.383   3.666 -1.0125 -0.2567 -1.1518
   37DOPC  H18Y 5105   8.220   0.429   3.491 -1.5707  0.0282 -0.4149
   37DOPC  H18Z 5106   8.306   0.530   3.612  0.0770 -0.7848 -0.7230
   38DOPC     N 5107   2.826   1.474   5.145  0.3091 -0.1459  0.2031
   38DOPC   C12 5108   2.711   1.444   5.047  0.7930  0.1785 -0.5400
   38DOPC  H12A 5109   2.616   1.474   5.089  0.2569 -0.5915 -1.1769
   38DOPC  H12B 5110   2.698   1.337   5.042  0.1511  0.2743 -1.0708
   38DOPC   C13 5111   2.949   1.398   5.096 -0.2775 -0.5587  0.4695
   38DOPC  H13A 5112   3.030   1.437   5.155 -0.1661 -0.2782  0.1343
   38DOPC  H13B 5113   2.944   1.291   5.108 -0.0524 -0.8957 -2.0188
   38DOPC  H13C 5114   2.965   1.407   4.990 -1.2123  0.1593  0.3707
   38DOPC   C14 5115   2.790   1.439   5.288 -0.4207  0.5577 -0.0649
   38DOPC  H14A 5116   2.738   1.345   5.303 -1.7316  1.2702 -0.0248
   38DOPC  H14B 5117   2.875   1.433   5.355 -0.0293 -1.0905 -0.6713
   38DOPC  H14C 5118   2.729   1.514   5.335 -1.3368  0.4033 -0.9687
   38DOPC   C15 5119   2.856   1.618   5.139  0.0516 -0.7644  0.7854
   38DOPC  H15A 5120   2.864   1.659   5.040  0.8945 -2.7574 -0.0342
   38DOPC  H15B 5121   2.950   1.643   5.187 -0.2013 -0.1556  0.9656
   38DOPC  H15C 5122   2.781   1.673   5.194  1.1338  0.1014  1.4432
   38DOPC   C11 5123   2.726   1.489   4.900  0.1006  0.8520 -0.2172
   38DOPC  H11A 5124   2.828   1.465   4.864  0.1454 -1.2990  1.2066
   38DOPC  H11B 5125   2.653   1.433   4.837 -0.2388  0.5144  0.4664
   38DOPC     P 5126   2.568   1.700   4.907 -0.4649  0.5040  0.3113
   38DOPC   O13 5127   2.588   1.806   5.005 -0.6639 -0.0304 -0.4015
   38DOPC   O14 5128   2.458   1.606   4.937  0.2031 -0.4295  0.8271
   38DOPC   O12 5129   2.709   1.628   4.898 -0.4417  0.6514  0.4278
   38DOPC   O11 5130   2.555   1.763   4.762  0.3679 -0.0488 -0.1553
   38DOPC    C1 5131   2.558   1.677   4.649 -0.2411  0.1174 -0.3348
   38DOPC    HA 5132   2.478   1.703   4.577 -0.3602  1.2403  0.1919
   38DOPC    HB 5133   2.532   1.572   4.675 -0.6150  0.5611  1.1889
   38DOPC    C2 5134   2.691   1.708   4.572 -0.3455 -0.0662 -0.6371
   38DOPC    HS 5135   2.770   1.686   4.648 -0.3524 -0.8299 -0.8432
   38DOPC   O21 5136   2.682   1.849   4.527  0.6301  0.1728 -0.4795
   38DOPC   C21 5137   2.789   1.922   4.549 -1.0445 -0.0429  0.6407
   38DOPC   O22 5138   2.887   1.893   4.613 -0.3823 -0.5220  0.2916
   38DOPC   C22 5139   2.777   2.061   4.480 -0.2756  0.2457  0.5376
   38DOPC   H2R 5140   2.870   2.095   4.431  0.2672 -0.0601  1.3257
   38DOPC   H2S 5141   2.768   2.132   4.564 -0.6478  1.2785 -0.3577
   38DOPC    C3 5142   2.706   1.621   4.444 -0.1259 -0.5608  0.2331
   38DOPC    HX 5143   2.642   1.672   4.369 -0.5719 -1.3611  0.0511
   38DOPC    HY 5144   2.661   1.520   4.450  0.7111 -0.9169  0.7505
   38DOPC   O31 5145   2.840   1.619   4.383  0.4262 -0.0550 -0.6685
   38DOPC   C31 5146   2.927   1.553   4.461  0.8271  0.0042 -0.2453
   38DOPC   O32 5147   2.901   1.476   4.553 -0.2302  0.1521  0.1637
   38DOPC   C32 5148   3.066   1.564   4.399  0.1983  0.5685 -0.0585
   38DOPC   H2X 5149   3.070   1.508   4.303 -2.4709 -2.1758  1.2537
   38DOPC   H2Y 5150   3.078   1.670   4.368  2.1203  1.4363  3.2735
   38DOPC   C23 5151   2.654   2.077   4.384  0.0270  0.0702 -1.1172
   38DOPC   H3R 5152   2.636   2.183   4.357  0.2190  0.4644  0.2172
   38DOPC   H3S 5153   2.567   2.040   4.442  1.2460 -0.2712  0.6115
   38DOPC   C24 5154   2.670   1.991   4.258  0.3103  0.0408  0.5197
   38DOPC   H4R 5155   2.676   1.884   4.287 -1.5889 -0.1168  0.4682
   38DOPC   H4S 5156   2.766   2.020   4.212 -0.5524  0.8633 -0.8441
   38DOPC   C25 5157   2.564   2.011   4.152  0.2891  0.8481  0.2126
   38DOPC   H5R 5158   2.568   2.107   4.097 -0.3402 -0.4208 -2.1903
   38DOPC   H5S 5159   2.466   2.008   4.204 -1.0872  2.8623 -2.0700
   38DOPC   C26 5160   2.556   1.896   4.046  0.1306 -0.0300 -0.4760
   38DOPC   H6R 5161   2.470   1.921   3.981 -0.6571  0.9220  0.8835
   38DOPC   H6S 5162   2.522   1.813   4.111  0.4974  1.3094  1.4949
   38DOPC   C27 5163   2.687   1.871   3.975  0.1224 -0.4199  0.4964
   38DOPC   H7R 5164   2.743   1.967   3.973  1.3185 -1.1095 -0.6053
   38DOPC   H7S 5165   2.663   1.846   3.869 -1.0052  2.5429 -0.0560
   38DOPC   C28 5166   2.770   1.752   4.035  0.3195 -0.0058 -0.0518
   38DOPC   H8R 5167   2.815   1.774   4.135  1.7129  0.6118 -0.7900
   38DOPC   H8S 5168   2.862   1.760   3.974  0.4835  0.2906  0.2353
   38DOPC   C29 5169   2.720   1.606   4.024  0.4900  0.4067 -0.1250
   38DOPC   H9R 5170   2.690   1.570   4.123  0.6175 -1.9521 -0.8889
   38DOPC  C210 5171   2.713   1.514   3.924  0.2092 -0.2753  0.4109
   38DOPC  H10R 5172   2.670   1.413   3.929 -1.2648  0.2712 -0.5110
   38DOPC  C211 5173   2.762   1.550   3.785  0.7384 -0.1050  0.2484
   38DOPC  H11R 5174   2.865   1.508   3.777  0.4754 -1.3919  2.7111
   38DOPC  H11S 5175   2.760   1.661   3.776 -2.8654 -0.0892 -0.2249
   38DOPC  C212 5176   2.686   1.495   3.666  0.3121  0.3249  0.2783
   38DOPC  H12R 5177   2.577   1.516   3.671 -0.1929 -1.7609 -0.8924
   38DOPC  H12S 5178   2.685   1.384   3.661 -2.2360  0.3090 -0.0272
   38DOPC  C213 5179   2.736   1.567   3.533 -0.3696 -0.8292 -0.7427
   38DOPC  H13R 5180   2.842   1.599   3.547 -0.2891 -1.6385  0.7321
   38DOPC  H13S 5181   2.694   1.667   3.554 -1.5834 -1.1149 -1.6989
   38DOPC  C214 5182   2.713   1.502   3.404 -0.0531 -0.3463 -0.7246
   38DOPC  H14R 5183   2.773   1.408   3.400 -1.2282 -1.1536 -0.0510
   38DOPC  H14S 5184   2.741   1.577   3.327  0.7583  1.6981  1.4599
   38DOPC  C215 5185   2.562   1.470   3.390 -0.1908 -0.4761 -0.2425
   38DOPC  H15R 5186   2.522   1.573   3.400 -0.8015 -0.5407 -1.7140
   38DOPC  H15S 5187   2.535   1.401   3.472  1.0837 -1.8998 -0.9717
   38DOPC  C216 5188   2.528   1.433   3.244 -0.6532 -0.5435 -0.2205
   38DOPC  H16R 5189   2.568   1.330   3.230  0.2377 -0.3713  0.8836
   38DOPC  H16S 5190   2.561   1.491   3.155  0.2695 -2.6958 -1.3598
   38DOPC  C217 5191   2.379   1.408   3.220  0.4206 -0.3586 -0.1880
   38DOPC  H17R 5192   2.331   1.339   3.294 -0.2313 -0.1752 -0.4375
   38DOPC  H17S 5193   2.381   1.367   3.117  0.3092 -1.9921  0.4199
   38DOPC  C218 5194   2.304   1.541   3.207 -0.1568 -0.8383  0.7163
   38DOPC  H18R 5195   2.361   1.608   3.138 -1.2116  1.3585  1.8733
   38DOPC  H18S 5196   2.282   1.587   3.306 -0.6765  0.0406  0.2112
   38DOPC  H18T 5197   2.205   1.532   3.159  0.0541  3.5263 -1.0332
   38DOPC   C33 5198   3.172   1.533   4.501  0.1252  0.3741  0.5416
   38DOPC   H3X 5199   3.146   1.584   4.596  3.1789 -2.0093  2.8657
   38DOPC   H3Y 5200   3.265   1.585   4.470  0.0539  0.7368  0.9208
   38DOPC   C34 5201   3.184   1.380   4.526  0.0339 -0.0149  0.2720
   38DOPC   H4X 5202   3.088   1.328   4.548  1.4418 -2.9036  0.1369
   38DOPC   H4Y 5203   3.249   1.371   4.615 -0.1314  0.9267  0.4902
   38DOPC   C35 5204   3.231   1.293   4.409  0.2534 -0.4513  0.6450
   38DOPC   H5X 5205   3.163   1.312   4.323  0.0781 -2.4979  0.2762
   38DOPC   H5Y 5206   3.236   1.185   4.436  1.2972 -0.6199 -0.1504
   38DOPC   C36 5207   3.365   1.331   4.351 -0.0764  0.5154 -0.0634
   38DOPC   H6X 5208   3.362   1.436   4.314  2.2499 -0.2795 -2.8726
   38DOPC   H6Y 5209   3.442   1.324   4.431  0.0190  1.1926 -0.0882
   38DOPC   C37 5210   3.409   1.243   4.226  0.1901 -0.2084 -0.4988
   38DOPC   H7X 5211   3.518   1.232   4.209  0.7401  2.3834  0.7818
   38DOPC   H7Y 5212   3.355   1.147   4.242  1.5571 -0.7942  0.8639
   38DOPC   C38 5213   3.349   1.315   4.107  0.1911 -0.3805  0.0931
   38DOPC   H8X 5214   3.381   1.421   4.096 -2.6931  0.4189 -1.6783
   38DOPC   H8Y 5215   3.240   1.327   4.121  0.3293  1.4427 -0.1606
   38DOPC   C39 5216   3.376   1.241   3.980  0.1704 -0.2762 -0.0556
   38DOPC   H9X 5217   3.481   1.213   3.962  0.1472 -0.6241  0.3268
   38DOPC  C310 5218   3.288   1.190   3.890  0.1736  0.1670  0.5798
   38DOPC  H10X 5219   3.332   1.142   3.801  3.5649  0.7640  1.8245
   38DOPC  C311 5220   3.139   1.207   3.893 -0.1645 -0.5721  0.6720
   38DOPC  H11X 5221   3.117   1.240   3.789 -1.5837 -0.7575  0.8887
   38DOPC  H11Y 5222   3.117   1.292   3.961 -1.3043 -1.5900  1.6130
   38DOPC  C312 5223   3.063   1.080   3.925  0.1591 -0.2210 -0.9543
   38DOPC  H12X 5224   3.038   1.082   4.033 -0.3710  0.0147 -1.0790
   38DOPC  H12Y 5225   3.129   0.994   3.901  0.7175 -0.1973  0.3673
   38DOPC  C313 5226   2.925   1.068   3.857 -0.5103 -0.0880 -0.5842
   38DOPC  H13X 5227   2.870   0.981   3.901 -0.1054 -1.4744 -2.6628
   38DOPC  H13Y 5228   2.870   1.160   3.886 -0.3288  0.4566 -1.9371
   38DOPC  C314 5229   2.925   1.058   3.702  0.0065 -0.2673 -0.6161
   38DOPC  H14X 5230   2.951   1.161   3.668 -0.7508  0.5721  1.1962
   38DOPC  H14Y 5231   3.003   0.985   3.672  0.3822 -0.7772  1.4452
   38DOPC  C315 5232   2.786   1.019   3.635  0.2973 -0.4699 -0.3551
   38DOPC  H15X 5233   2.705   1.094   3.643 -0.7959 -1.6550  0.1092
   38DOPC  H15Y 5234   2.740   0.932   3.686 -1.9849 -0.6557 -2.5240
   38DOPC  C316 5235   2.809   0.972   3.487 -0.6058 -0.2269  0.4639
   38DOPC  H16X 5236   2.877   0.884   3.489  0.1252  0.3093 -0.4330
   38DOPC  H16Y 5237   2.717   0.941   3.434  0.1538  0.1369 -1.1427
   38DOPC  C317 5238   2.891   1.076   3.394 -0.4529  0.4141  0.2264
   38DOPC  H17X 5239   2.850   1.171   3.435 -1.4637  0.2270 -0.3067
   38DOPC  H17Y 5240   2.996   1.059   3.425 -0.5493  0.9351  0.8629
   38DOPC  C318 5241   2.854   1.074   3.253  0.7356  0.6132  0.1680
   38DOPC  H18X 5242   2.861   0.965   3.229  0.9792  0.6479  0.0798
   38DOPC  H18Y 5243   2.747   1.105   3.253  0.4196 -0.1163  3.4314
   38DOPC  H18Z 5244   2.911   1.143   3.187 -0.4278  0.5061 -0.9976
   39DOPC     N 5245   5.470   1.020   5.720 -0.0292 -0.2268 -0.2338
   39DOPC   C12 5246   5.334   1.026   5.787 -0.0743  0.3298  0.0758
   39DOPC  H12A 5247   5.331   0.941   5.853  0.1630 -2.3716 -3.1024
   39DOPC  H12B 5248   5.255   1.010   5.715  1.5522  0.4322 -1.8168
   39DOPC   C13 5249   5.494   0.883   5.659  0.4495 -1.0267 -0.4812
   39DOPC  H13A 5250   5.421   0.857   5.583  0.4634 -0.8711 -0.5484
   39DOPC  H13B 5251   5.593   0.887   5.614  1.0655 -2.9355  0.5942
   39DOPC  H13C 5252   5.498   0.809   5.737  0.2629 -1.3768 -0.8024
   39DOPC   C14 5253   5.573   1.052   5.823 -1.1249 -0.4412  0.4118
   39DOPC  H14A 5254   5.579   1.157   5.846  4.1030 -0.3069 -0.2609
   39DOPC  H14B 5255   5.560   0.998   5.915  1.2552 -0.0883  1.0183
   39DOPC  H14C 5256   5.672   1.035   5.782 -1.3461  1.5178 -1.0723
   39DOPC   C15 5257   5.477   1.129   5.611  0.3567  0.1202 -0.5132
   39DOPC  H15A 5258   5.573   1.118   5.562  1.4841  1.1382  1.3461
   39DOPC  H15B 5259   5.484   1.229   5.652 -0.2406  0.2233 -0.6548
   39DOPC  H15C 5260   5.389   1.139   5.549 -0.7573  1.7081  1.2059
   39DOPC   C11 5261   5.314   1.156   5.867  0.5550 -0.0504 -0.4295
   39DOPC  H11A 5262   5.215   1.134   5.913  0.2224  1.5985 -0.2916
   39DOPC  H11B 5263   5.384   1.161   5.953  1.1521 -0.6195 -0.8723
   39DOPC     P 5264   5.202   1.326   5.693  0.2419  0.2669 -0.0630
   39DOPC   O13 5265   5.132   1.441   5.759 -0.2106  0.2007  0.0705
   39DOPC   O14 5266   5.120   1.206   5.653 -0.2749  0.5173 -0.2644
   39DOPC   O12 5267   5.318   1.275   5.787 -1.0006  0.0286 -0.5056
   39DOPC   O11 5268   5.288   1.378   5.564  0.1617  0.0906 -0.3437
   39DOPC    C1 5269   5.352   1.508   5.573  0.2171  0.3980 -0.1860
   39DOPC    HA 5270   5.436   1.499   5.500 -0.4363  1.9997 -1.2001
   39DOPC    HB 5271   5.388   1.520   5.678 -1.4425 -2.3699  0.7765
   39DOPC    C2 5272   5.263   1.630   5.529  0.2007  0.3849 -0.1081
   39DOPC    HS 5273   5.167   1.625   5.584  0.2675 -0.0442 -0.0255
   39DOPC   O21 5274   5.240   1.620   5.387 -0.0198  0.2709 -0.0083
   39DOPC   C21 5275   5.119   1.639   5.335 -0.4369  0.1048 -0.2822
   39DOPC   O22 5276   5.013   1.674   5.382  0.6468  0.6632  0.1087
   39DOPC   C22 5277   5.137   1.597   5.191  0.0143 -0.5822  0.2116
   39DOPC   H2R 5278   5.159   1.488   5.185  0.7887 -0.4125 -0.1113
   39DOPC   H2S 5279   5.229   1.650   5.161  0.3239 -0.1616  1.8258
   39DOPC    C3 5280   5.337   1.756   5.575 -0.0670  0.5254  0.0214
   39DOPC    HX 5281   5.446   1.742   5.560 -0.1839 -1.2638  0.5502
   39DOPC    HY 5282   5.328   1.762   5.686  3.4760 -1.6553  0.5785
   39DOPC   O31 5283   5.285   1.869   5.495  0.2173 -0.1458  0.1001
   39DOPC   C31 5284   5.175   1.917   5.549 -0.2289 -0.3672  0.1521
   39DOPC   O32 5285   5.140   1.885   5.665 -0.7256 -0.2489  0.2209
   39DOPC   C32 5286   5.094   2.005   5.458  0.1926 -0.3801  0.2907
   39DOPC   H2X 5287   4.991   1.966   5.453  0.4465 -0.9582 -0.6962
   39DOPC   H2Y 5288   5.090   2.105   5.508  0.1058 -0.1682 -0.1347
   39DOPC   C23 5289   5.013   1.627   5.102 -0.1587 -0.3568  0.1564
   39DOPC   H3R 5290   4.978   1.731   5.118 -1.1637 -0.6420 -0.0838
   39DOPC   H3S 5291   4.919   1.569   5.116 -1.2928  1.3165 -0.1334
   39DOPC   C24 5292   5.048   1.631   4.953  0.0926  0.7411 -0.6227
   39DOPC   H4R 5293   4.955   1.638   4.893 -0.4132  0.3720  0.1103
   39DOPC   H4S 5294   5.089   1.533   4.922 -0.7539  0.2062 -0.0853
   39DOPC   C25 5295   5.137   1.747   4.919  0.2230  0.1478  0.0254
   39DOPC   H5R 5296   5.239   1.727   4.959  0.5405  0.0646 -0.7950
   39DOPC   H5S 5297   5.097   1.839   4.966 -0.7179 -0.0050 -0.4646
   39DOPC   C26 5298   5.151   1.777   4.766 -0.2907 -0.0623  0.2777
   39DOPC   H6R 5299   5.196   1.689   4.715 -1.3687 -1.0009  0.8783
   39DOPC   H6S 5300   5.233   1.851   4.761 -1.7722  1.8032  1.7435
   39DOPC   C27 5301   5.024   1.820   4.694  0.7058  0.1334  0.2456
   39DOPC   H7R 5302   4.988   1.916   4.736  0.9996  0.3199  0.0744
   39DOPC   H7S 5303   4.940   1.749   4.711 -0.0348  0.3979 -1.9137
   39DOPC   C28 5304   5.025   1.842   4.539 -0.8172  0.4638 -0.1429
   39DOPC   H8R 5305   5.099   1.921   4.516  0.2565 -0.4579  0.1107
   39DOPC   H8S 5306   4.928   1.882   4.502 -1.3252 -0.7874 -0.2223
   39DOPC   C29 5307   5.057   1.719   4.458  0.8388  0.0823  0.3760
   39DOPC   H9R 5308   5.064   1.625   4.515 -0.3556 -0.2949 -0.0745
   39DOPC  C210 5309   5.086   1.713   4.324 -0.4304  0.5398  0.2890
   39DOPC  H10R 5310   5.102   1.614   4.279 -2.2592  1.2984 -2.2314
   39DOPC  C211 5311   5.086   1.836   4.234  0.1099 -0.5816  0.4276
   39DOPC  H11R 5312   5.044   1.930   4.276 -1.3957 -1.8503  1.9085
   39DOPC  H11S 5313   5.026   1.819   4.143 -0.8332  0.5378  0.8253
   39DOPC  C212 5314   5.228   1.867   4.211 -0.6333  0.3617 -0.0736
   39DOPC  H12R 5315   5.289   1.781   4.175 -0.3477  0.5221  0.0215
   39DOPC  H12S 5316   5.277   1.905   4.303 -0.7330  2.5405 -0.8733
   39DOPC  C213 5317   5.242   1.973   4.101  0.2852  1.1373 -0.0727
   39DOPC  H13R 5318   5.171   2.058   4.109  1.1819  2.0369 -1.2168
   39DOPC  H13S 5319   5.224   1.916   4.007 -2.1996  0.2141  0.8657
   39DOPC  C214 5320   5.385   2.020   4.091 -1.3047 -0.0245  0.3793
   39DOPC  H14R 5321   5.453   1.936   4.119 -0.5963  0.0712 -0.9554
   39DOPC  H14S 5322   5.401   2.100   4.166  0.9171 -0.6789  0.6893
   39DOPC  C215 5323   5.427   2.057   3.949  0.0040  0.6477  0.3437
   39DOPC  H15R 5324   5.421   1.966   3.885  0.8391  0.6577  0.2349
   39DOPC  H15S 5325   5.531   2.095   3.936  0.8392 -1.1525  1.3547
   39DOPC  C216 5326   5.340   2.159   3.873 -0.0740  0.0062 -0.1794
   39DOPC  H16R 5327   5.241   2.166   3.923  1.1016  3.1088  2.0163
   39DOPC  H16S 5328   5.330   2.115   3.771 -2.2904 -0.1579  0.0563
   39DOPC  C217 5329   5.390   2.299   3.862 -0.4344 -0.1002 -0.7057
   39DOPC  H17R 5330   5.311   2.353   3.805 -1.9950  0.4923  1.8431
   39DOPC  H17S 5331   5.490   2.303   3.813 -0.0083 -0.3384  0.1177
   39DOPC  C218 5332   5.425   2.381   3.993  0.6660 -0.5597 -0.1763
   39DOPC  H18R 5333   5.325   2.375   4.042  0.5235 -0.8659 -0.5016
   39DOPC  H18S 5334   5.453   2.486   3.969 -0.3893 -0.5736 -1.5880
   39DOPC  H18T 5335   5.500   2.333   4.059  0.9370  0.7832  0.5405
   39DOPC   C33 5336   5.159   2.030   5.319  0.2922 -0.5314  0.2322
   39DOPC   H3X 5337   5.170   1.934   5.264  0.9715 -0.4244  0.1793
   39DOPC   H3Y 5338   5.258   2.079   5.334 -1.1533  3.8144 -2.2801
   39DOPC   C34 5339   5.063   2.128   5.231 -0.5375  0.4501 -0.4243
   39DOPC   H4X 5340   5.008   2.200   5.295  1.3701 -1.2787  3.4912
   39DOPC   H4Y 5341   4.997   2.062   5.170  0.2622 -0.0457 -0.7809
   39DOPC   C35 5342   5.141   2.218   5.133  0.0068  0.7233 -0.4785
   39DOPC   H5X 5343   5.219   2.268   5.194 -1.0583  2.7288 -0.6714
   39DOPC   H5Y 5344   5.072   2.295   5.092  0.2975  0.7510 -0.9246
   39DOPC   C36 5345   5.208   2.141   5.019 -1.0746 -1.1235  0.2351
   39DOPC   H6X 5346   5.280   2.064   5.054  1.3923  0.8231 -0.2113
   39DOPC   H6Y 5347   5.126   2.090   4.964 -1.1617 -0.2267 -0.5123
   39DOPC   C37 5348   5.291   2.222   4.922  0.8297  0.9505 -0.0110
   39DOPC   H7X 5349   5.227   2.307   4.889  0.3634  0.4542 -0.4056
   39DOPC   H7Y 5350   5.380   2.256   4.979  0.6721 -0.6150  1.2335
   39DOPC   C38 5351   5.316   2.137   4.792 -0.5874  0.1135  0.0332
   39DOPC   H8X 5352   5.220   2.109   4.745 -1.4548 -0.5389  2.0600
   39DOPC   H8Y 5353   5.371   2.043   4.816  1.4833  0.6932 -2.0594
   39DOPC   C39 5354   5.410   2.219   4.699 -0.1622  0.3123  0.0969
   39DOPC   H9X 5355   5.490   2.280   4.743  0.5911 -2.1531  2.4012
   39DOPC  C310 5356   5.393   2.226   4.568  0.7351  0.3437 -0.6401
   39DOPC  H10X 5357   5.458   2.294   4.511 -1.9394  0.6422 -3.6726
   39DOPC  C311 5358   5.281   2.166   4.487 -0.1048  0.1934 -0.0783
   39DOPC  H11X 5359   5.237   2.080   4.543 -2.0489 -0.2076 -2.1218
   39DOPC  H11Y 5360   5.321   2.114   4.397 -2.6414 -1.7518 -0.2087
   39DOPC  C312 5361   5.171   2.264   4.444 -0.1685  0.2157 -0.4586
   39DOPC  H12X 5362   5.132   2.316   4.534 -0.3892 -0.7450  0.0183
   39DOPC  H12Y 5363   5.089   2.197   4.408  0.5550 -0.8879 -0.0926
   39DOPC  C313 5364   5.203   2.359   4.326 -0.4803  0.2332  0.8310
   39DOPC  H13X 5365   5.296   2.413   4.354  0.9037 -0.8067 -1.5317
   39DOPC  H13Y 5366   5.237   2.301   4.239  2.2216  1.4327  0.9986
   39DOPC  C314 5367   5.093   2.469   4.296  0.3956 -0.2934  0.2156
   39DOPC  H14X 5368   4.998   2.415   4.274  0.1609  1.1654 -3.0200
   39DOPC  H14Y 5369   5.076   2.525   4.390  2.1587 -1.8880  1.5472
   39DOPC  C315 5370   5.141   2.555   4.177 -0.8978 -0.4717 -0.4457
   39DOPC  H15X 5371   5.181   2.492   4.094  0.5835  1.1155 -0.9924
   39DOPC  H15Y 5372   5.223   2.624   4.207 -0.3194 -1.1198 -0.5153
   39DOPC  C316 5373   5.022   2.635   4.121  0.3181  0.3799 -1.0642
   39DOPC  H16X 5374   4.972   2.677   4.212  0.0646 -1.8946 -0.0967
   39DOPC  H16Y 5375   4.942   2.567   4.084 -0.3345 -0.6115  1.8483
   39DOPC  C317 5376   5.057   2.743   4.017  0.0032  0.5080 -0.0009
   39DOPC  H17X 5377   4.958   2.770   3.973 -0.1186  0.0929  0.0160
   39DOPC  H17Y 5378   5.105   2.832   4.064  1.1781  0.3901 -0.9214
   39DOPC  C318 5379   5.154   2.691   3.909 -0.2696 -0.1303 -0.0818
   39DOPC  H18X 5380   5.123   2.588   3.878 -0.7305 -0.2484  0.7425
   39DOPC  H18Y 5381   5.155   2.758   3.821  1.6635  1.5646  1.1687
   39DOPC  H18Z 5382   5.249   2.687   3.966  0.4864  0.8485 -1.2307
   40DOPC     N 5383   0.837   2.675   5.507  0.6833  0.5908  0.3108
   40DOPC   C12 5384   0.757   2.700   5.384 -0.8460  0.2469  0.0926
   40DOPC  H12A 5385   0.825   2.691   5.301  2.6949  2.9344  2.4170
   40DOPC  H12B 5386   0.726   2.803   5.396 -0.4110  0.0797  4.3803
   40DOPC   C13 5387   0.744   2.641   5.620 -0.6923  0.4559  0.6924
   40DOPC  H13A 5388   0.796   2.626   5.714  2.1414 -2.1828 -1.1278
   40DOPC  H13B 5389   0.671   2.718   5.643  0.0068  1.8336 -1.4229
   40DOPC  H13C 5390   0.686   2.553   5.597 -0.5519  0.1586  1.4389
   40DOPC   C14 5391   0.917   2.795   5.536 -0.3398 -0.4566 -0.0926
   40DOPC  H14A 5392   0.976   2.823   5.451 -0.5905 -1.3387 -0.5735
   40DOPC  H14B 5393   0.845   2.868   5.570 -0.6395 -0.6694 -0.2633
   40DOPC  H14C 5394   0.993   2.787   5.612 -0.2546  1.6013  0.1006
   40DOPC   C15 5395   0.935   2.565   5.494 -0.2891  0.6675  0.1658
   40DOPC  H15A 5396   0.994   2.555   5.583 -2.7660  0.7786  1.9012
   40DOPC  H15B 5397   1.002   2.583   5.411 -2.6419 -0.2342 -2.0975
   40DOPC  H15C 5398   0.885   2.471   5.477 -1.8983  1.3478  0.9332
   40DOPC   C11 5399   0.626   2.614   5.356  0.0931  0.1704 -0.3767
   40DOPC  H11A 5400   0.548   2.642   5.430 -0.0846 -0.9581 -0.1201
   40DOPC  H11B 5401   0.596   2.658   5.259 -1.0349  0.5215  0.1126
   40DOPC     P 5402   0.562   2.372   5.426  0.3314  1.1140  0.1241
   40DOPC   O13 5403   0.547   2.420   5.568  0.0190 -0.1019  0.7729
   40DOPC   O14 5404   0.603   2.228   5.416  0.4181 -0.2686 -0.3506
   40DOPC   O12 5405   0.656   2.475   5.357 -0.4082 -0.3719  0.1165
   40DOPC   O11 5406   0.426   2.390   5.347 -0.7640 -0.5212  0.2252
   40DOPC    C1 5407   0.415   2.386   5.200 -0.2132 -0.2971 -0.3915
   40DOPC    HA 5408   0.514   2.423   5.165  0.7029 -1.8931  0.3672
   40DOPC    HB 5409   0.337   2.457   5.166 -0.4046 -0.0258  0.5710
   40DOPC    C2 5410   0.384   2.244   5.158  0.5498 -0.4018 -0.1417
   40DOPC    HS 5411   0.454   2.173   5.208  0.7758  0.9533  1.5637
   40DOPC   O21 5412   0.394   2.236   5.017  0.0471  0.0953  0.4928
   40DOPC   C21 5413   0.466   2.139   4.968 -0.2209 -0.1628 -0.0042
   40DOPC   O22 5414   0.544   2.065   5.027  0.1820  0.6914  0.5280
   40DOPC   C22 5415   0.441   2.127   4.813 -0.5621 -0.2724  0.0257
   40DOPC   H2R 5416   0.382   2.215   4.779 -2.2832 -0.9883  1.0614
   40DOPC   H2S 5417   0.385   2.033   4.795 -1.0594  0.1861 -0.8850
   40DOPC    C3 5418   0.238   2.205   5.211 -0.5607 -0.4132  0.6317
   40DOPC    HX 5419   0.232   2.238   5.317  1.5731  0.8608  0.4181
   40DOPC    HY 5420   0.232   2.095   5.194  0.9715 -0.7209  1.8379
   40DOPC   O31 5421   0.133   2.276   5.139  0.1392  0.0964  0.1132
   40DOPC   C31 5422   0.079   2.213   5.028  0.3169 -0.1891  0.3743
   40DOPC   O32 5423   0.106   2.095   5.002 -0.1591  0.2369  0.0249
   40DOPC   C32 5424   8.513   2.304   4.953  0.4451 -0.5952  0.2218
   40DOPC   H2X 5425   8.448   2.230   4.901  0.3982  0.2154 -0.8931
   40DOPC   H2Y 5426   8.457   2.363   5.028 -0.4014 -2.5294  1.1818
   40DOPC   C23 5427   0.577   2.120   4.739  0.2660 -0.6531  0.4847
   40DOPC   H3R 5428   0.560   2.095   4.632 -1.2503  1.6906  0.1262
   40DOPC   H3S 5429   0.640   2.037   4.779 -0.3453 -1.3137  0.0919
   40DOPC   C24 5430   0.657   2.251   4.738  0.3645 -0.1071 -0.0294
   40DOPC   H4R 5431   0.678   2.274   4.844 -1.5580 -0.3759  0.4549
   40DOPC   H4S 5432   0.593   2.333   4.699  0.0063 -0.4343 -0.1440
   40DOPC   C25 5433   0.788   2.241   4.660  0.5347 -0.0209  0.0288
   40DOPC   H5R 5434   0.763   2.211   4.556 -1.5477  0.8720  0.2144
   40DOPC   H5S 5435   0.852   2.161   4.703  1.0930 -0.4321 -1.5298
   40DOPC   C26 5436   0.860   2.372   4.677  0.7380  0.1644 -1.1643
   40DOPC   H6R 5437   0.889   2.371   4.784 -1.3636 -1.4590 -0.5398
   40DOPC   H6S 5438   0.783   2.452   4.675 -1.9329 -2.2205 -0.2591
   40DOPC   C27 5439   0.990   2.382   4.592  0.5106  0.0188  0.5211
   40DOPC   H7R 5440   1.047   2.290   4.617 -0.8148 -0.6502  1.2284
   40DOPC   H7S 5441   1.044   2.474   4.622 -2.3930  1.1564  2.8330
   40DOPC   C28 5442   0.950   2.373   4.445 -0.0912  0.6934  0.3130
   40DOPC   H8R 5443   0.881   2.457   4.420  1.2118  1.8063  0.3336
   40DOPC   H8S 5444   0.894   2.279   4.430 -1.9042  1.9668 -1.3705
   40DOPC   C29 5445   1.063   2.383   4.343  0.7378 -0.5838 -0.7103
   40DOPC   H9R 5446   1.152   2.338   4.390 -1.0891 -1.2348  2.4003
   40DOPC  C210 5447   1.056   2.440   4.221  0.2192  0.1306  0.5571
   40DOPC  H10R 5448   1.156   2.434   4.175 -0.8441 -0.3515 -1.8296
   40DOPC  C211 5449   0.930   2.483   4.149 -0.0220  0.1681  0.4797
   40DOPC  H11R 5450   0.937   2.593   4.141 -1.7669  0.2853  0.1305
   40DOPC  H11S 5451   0.844   2.464   4.217  1.0057 -0.6761  1.5712
   40DOPC  C212 5452   0.910   2.417   4.012  0.1238  0.0471  0.6498
   40DOPC  H12R 5453   0.906   2.308   4.033  0.3924  0.4100  2.8237
   40DOPC  H12S 5454   1.002   2.441   3.954 -0.9379  1.5284 -0.5098
   40DOPC  C213 5455   0.789   2.465   3.932 -0.0190  0.3689 -0.2376
   40DOPC  H13R 5456   0.788   2.417   3.832  0.5264 -0.0368 -0.0491
   40DOPC  H13S 5457   0.795   2.575   3.918 -0.2779  0.2515 -1.4493
   40DOPC  C214 5458   0.649   2.438   3.998  0.4613 -0.3876 -0.8140
   40DOPC  H14R 5459   0.645   2.504   4.087  1.3933  0.8468 -1.6526
   40DOPC  H14S 5460   0.636   2.334   4.036 -0.7501  0.5138  1.4368
   40DOPC  C215 5461   0.533   2.469   3.900  0.0989 -1.0501 -1.1412
   40DOPC  H15R 5462   0.550   2.434   3.795  0.1157  0.9492 -1.8347
   40DOPC  H15S 5463   0.538   2.579   3.889  0.6304 -0.8617  0.7031
   40DOPC  C216 5464   0.398   2.427   3.948  0.1513  0.1519 -0.7157
   40DOPC  H16R 5465   0.370   2.479   4.042 -1.6225 -2.6795  0.4472
   40DOPC  H16S 5466   0.397   2.320   3.978  1.2073 -0.2432 -1.9767
   40DOPC  C217 5467   0.291   2.452   3.839  0.5087 -0.1144 -0.0307
   40DOPC  H17R 5468   0.305   2.382   3.754 -1.9781 -1.2675  0.4304
   40DOPC  H17S 5469   0.306   2.554   3.798  1.4485 -0.0367  0.4864
   40DOPC  C218 5470   0.152   2.430   3.888  0.9233  0.4283  0.4571
   40DOPC  H18R 5471   0.153   2.328   3.932  0.3144  0.0933 -0.2840
   40DOPC  H18S 5472   0.083   2.436   3.801  0.4502 -3.5296  0.3932
   40DOPC  H18T 5473   0.130   2.497   3.973  1.1875  1.2491 -0.1064
   40DOPC   C33 5474   0.059   2.390   4.848  0.0092 -0.4162  0.2444
   40DOPC   H3X 5475   0.155   2.417   4.897  0.0586 -1.0522  0.5129
   40DOPC   H3Y 5476   0.011   2.489   4.834  1.2851  0.1640 -0.1437
   40DOPC   C34 5477   0.076   2.330   4.709 -0.8244  0.1450 -0.1316
   40DOPC   H4X 5478   8.509   2.325   4.665 -0.4062 -1.1976 -0.9957
   40DOPC   H4Y 5479   0.128   2.235   4.733 -0.9827  0.2850  0.7938
   40DOPC   C35 5480   0.169   2.419   4.623  0.2338  0.9343  0.0466
   40DOPC   H5X 5481   0.262   2.431   4.683  1.4601 -1.6552 -1.1811
   40DOPC   H5Y 5482   0.128   2.520   4.600  0.2142  0.4849 -2.0735
   40DOPC   C36 5483   0.209   2.356   4.489 -0.2697 -0.2383  0.5257
   40DOPC   H6X 5484   0.214   2.247   4.512  0.4637 -0.1464  0.8672
   40DOPC   H6Y 5485   0.131   2.357   4.411 -1.6159 -0.2965  1.8310
   40DOPC   C37 5486   0.351   2.403   4.440  0.0685  0.1650  0.1459
   40DOPC   H7X 5487   0.420   2.391   4.527  1.3043 -0.2456 -0.8492
   40DOPC   H7Y 5488   0.381   2.337   4.357  3.5011  0.2156  1.1553
   40DOPC   C38 5489   0.352   2.550   4.386  0.9610 -0.5177 -0.2833
   40DOPC   H8X 5490   0.339   2.619   4.472  1.1155 -1.4561  0.5053
   40DOPC   H8Y 5491   0.258   2.550   4.326  1.0409 -1.8978 -0.4369
   40DOPC   C39 5492   0.471   2.580   4.301  0.0595 -0.2366 -0.1943
   40DOPC   H9X 5493   0.541   2.499   4.277  0.0788 -0.1459 -0.4486
   40DOPC  C310 5494   0.485   2.698   4.238  0.0829 -0.2462  0.4793
   40DOPC  H10X 5495   0.565   2.723   4.167 -0.5848  1.3161  0.2397
   40DOPC  C311 5496   0.397   2.820   4.257  0.4904  0.7615  0.1363
   40DOPC  H11X 5497   0.455   2.908   4.292  1.4582 -0.3357  1.3553
   40DOPC  H11Y 5498   0.321   2.807   4.338 -0.1123  0.6913 -0.4269
   40DOPC  C312 5499   0.319   2.851   4.130  0.0049  0.3926  0.1104
   40DOPC  H12X 5500   0.252   2.939   4.145  0.1860  1.0012 -2.1929
   40DOPC  H12Y 5501   0.252   2.765   4.109  2.8278 -1.8362 -0.2896
   40DOPC  C313 5502   0.407   2.883   4.005 -0.3685  0.5618  0.0012
   40DOPC  H13X 5503   0.469   2.970   4.036 -0.2322  0.9279 -1.2257
   40DOPC  H13Y 5504   0.465   2.791   3.984  0.0915  0.6143  0.9883
   40DOPC  C314 5505   0.334   2.917   3.883 -0.3313 -0.4498  0.1627
   40DOPC  H14X 5506   0.268   2.833   3.852 -1.0627 -0.0663  0.6493
   40DOPC  H14Y 5507   0.257   2.997   3.889 -0.5700 -0.6505 -0.1650
   40DOPC  C315 5508   0.429   2.958   3.773  0.0613  0.7399  0.6791
   40DOPC  H15X 5509   0.515   3.021   3.806  0.0071  0.2470  1.7892
   40DOPC  H15Y 5510   0.366   3.022   3.707 -0.9308 -0.8998 -0.0152
   40DOPC  C316 5511   0.488   2.846   3.681  0.2319  0.9306 -0.0672
   40DOPC  H16X 5512   0.581   2.806   3.726 -0.0225 -1.9348 -1.8520
   40DOPC  H16Y 5513   0.420   2.759   3.678 -1.1832  2.0197 -1.7327
   40DOPC  C317 5514   0.521   2.894   3.539 -0.1251 -0.1471 -0.6522
   40DOPC  H17X 5515   0.436   2.957   3.507  0.0131  1.3572  1.6392
   40DOPC  H17Y 5516   0.586   2.984   3.549 -0.8073  0.2011  1.0162
   40DOPC  C318 5517   0.567   2.783   3.444  0.0507  0.1789 -0.1922
   40DOPC  H18X 5518   0.649   2.722   3.487  1.0636  2.0627  0.6914
   40DOPC  H18Y 5519   0.494   2.704   3.419  0.1427 -0.8839  2.6172
   40DOPC  H18Z 5520   0.596   2.831   3.347 -2.6832  1.1297 -0.6200
   41DOPC     N 5521   5.384   0.257   5.251 -0.3107  0.3034  0.3556
   41DOPC   C12 5522   5.469   0.301   5.139  0.1405  0.6100  0.2419
   41DOPC  H12A 5523   5.417   0.374   5.079 -0.1512 -0.0763 -0.3626
   41DOPC  H12B 5524   5.480   0.221   5.067  0.4936  0.5136  0.4009
   41DOPC   C13 5525   5.267   0.182   5.193 -0.0367 -0.0364 -0.4374
   41DOPC  H13A 5526   5.299   0.101   5.129  1.7420 -0.1794  0.5710
   41DOPC  H13B 5527   5.218   0.141   5.281  0.8256  1.8613  0.9965
   41DOPC  H13C 5528   5.186   0.239   5.149  0.5458 -0.8268 -2.6484
   41DOPC   C14 5529   5.340   0.376   5.328  0.6882  0.0529  0.1710
   41DOPC  H14A 5530   5.281   0.425   5.252  0.9809 -1.5409 -1.1548
   41DOPC  H14B 5531   5.271   0.353   5.409  0.4511 -0.8369 -0.2676
   41DOPC  H14C 5532   5.422   0.430   5.373 -0.0848  0.5162  1.0720
   41DOPC   C15 5533   5.461   0.173   5.353 -0.1402 -0.3394  0.0532
   41DOPC  H15A 5534   5.487   0.078   5.309 -0.2323 -0.9306  1.2399
   41DOPC  H15B 5535   5.415   0.166   5.450 -0.5308  0.3777 -0.0708
   41DOPC  H15C 5536   5.559   0.213   5.373  0.3887 -1.7973  0.5210
   41DOPC   C11 5537   5.611   0.367   5.166  0.3572 -1.0567 -0.0475
   41DOPC  H11A 5538   5.629   0.409   5.066 -0.5948  0.1767  0.2771
   41DOPC  H11B 5539   5.591   0.446   5.242  0.2442 -0.6522 -0.4945
   41DOPC     P 5540   5.856   0.329   5.215 -0.0393 -0.0339  0.1576
   41DOPC   O13 5541   5.953   0.222   5.238 -0.1400  0.2328 -0.4586
   41DOPC   O14 5542   5.850   0.434   5.316  0.5374  0.3779 -0.5756
   41DOPC   O12 5543   5.710   0.264   5.199 -0.2355 -0.4476 -0.4144
   41DOPC   O11 5544   5.881   0.396   5.067 -0.4750 -0.3738 -0.0363
   41DOPC    C1 5545   5.863   0.302   4.957 -0.1375  0.0246 -0.4383
   41DOPC    HA 5546   5.816   0.357   4.873 -2.0928  0.7086  1.0466
   41DOPC    HB 5547   5.789   0.222   4.977 -0.0122  0.2701  1.0847
   41DOPC    C2 5548   5.995   0.257   4.883 -0.3109 -0.3002 -0.7289
   41DOPC    HS 5549   6.040   0.202   4.968  1.6412  0.4648 -1.2072
   41DOPC   O21 5550   6.080   0.371   4.859 -0.7082  0.1654  0.1715
   41DOPC   C21 5551   6.204   0.347   4.825 -0.7896 -0.7587 -0.8926
   41DOPC   O22 5552   6.256   0.236   4.806  0.3490  0.1077  0.4592
   41DOPC   C22 5553   6.280   0.477   4.815 -0.2595  0.0035  0.1329
   41DOPC   H2R 5554   6.389   0.458   4.816  0.6540  3.7974 -3.2234
   41DOPC   H2S 5555   6.249   0.550   4.894 -0.4515  1.1666 -0.9887
   41DOPC    C3 5556   5.966   0.156   4.768 -0.2372 -0.3179 -0.4132
   41DOPC    HX 5557   5.902   0.075   4.809  1.8263 -0.6675  2.3570
   41DOPC    HY 5558   6.063   0.106   4.748  0.3012  0.3908  0.3552
   41DOPC   O31 5559   5.908   0.216   4.651  0.0674 -0.6316 -0.3940
   41DOPC   C31 5560   5.771   0.183   4.627 -0.1154 -0.0630 -0.4788
   41DOPC   O32 5561   5.701   0.108   4.695 -0.1694 -0.4643 -0.0815
   41DOPC   C32 5562   5.722   0.253   4.501 -0.3343 -0.4895  0.3130
   41DOPC   H2X 5563   5.801   0.298   4.437  0.5273 -0.7548  1.1804
   41DOPC   H2Y 5564   5.694   0.166   4.438  0.6950  0.4656 -1.5638
   41DOPC   C23 5565   6.246   0.552   4.678 -1.3567  0.1067  0.1578
   41DOPC   H3R 5566   6.148   0.523   4.634 -0.5371 -0.3193 -1.4580
   41DOPC   H3S 5567   6.314   0.519   4.598 -1.2936 -1.3896  0.7981
   41DOPC   C24 5568   6.245   0.706   4.709 -0.3093  0.0731 -0.1754
   41DOPC   H4R 5569   6.347   0.748   4.722  0.5527 -1.7703 -0.6709
   41DOPC   H4S 5570   6.181   0.710   4.799  1.0776  0.5405  0.8247
   41DOPC   C25 5571   6.170   0.788   4.597  0.0843  0.2385 -0.1721
   41DOPC   H5R 5572   6.115   0.867   4.653 -0.5196  0.3136 -0.8615
   41DOPC   H5S 5573   6.082   0.731   4.560 -1.4936  2.0504  0.5925
   41DOPC   C26 5574   6.262   0.830   4.487  0.0515  0.0581  0.5692
   41DOPC   H6R 5575   6.283   0.734   4.435  1.2986 -0.4065  1.8730
   41DOPC   H6S 5576   6.360   0.868   4.523  0.4059  0.2320 -0.5354
   41DOPC   C27 5577   6.215   0.936   4.388 -0.1056  0.4092 -0.6413
   41DOPC   H7R 5578   6.186   1.029   4.441 -2.1351 -2.4383  3.8867
   41DOPC   H7S 5579   6.114   0.900   4.359  0.6426 -1.6945 -0.8426
   41DOPC   C28 5580   6.324   0.955   4.270  0.1696  0.0898  0.0136
   41DOPC   H8R 5581   6.305   0.866   4.207  1.8707 -0.7563  0.6293
   41DOPC   H8S 5582   6.430   0.931   4.293 -0.5894 -1.2382  2.4477
   41DOPC   C29 5583   6.321   1.082   4.183  0.0726 -0.4497 -0.6002
   41DOPC   H9R 5584   6.232   1.145   4.193  0.1118 -0.5153  0.1987
   41DOPC  C210 5585   6.419   1.123   4.100  0.4218 -0.3789 -0.5949
   41DOPC  H10R 5586   6.401   1.219   4.051 -0.1014 -0.0545  0.2155
   41DOPC  C211 5587   6.538   1.044   4.042 -0.1240  0.0617 -0.4691
   41DOPC  H11R 5588   6.515   1.037   3.934 -0.9915  1.4698 -0.4065
   41DOPC  H11S 5589   6.541   0.938   4.078  0.7429  0.6066  1.1944
   41DOPC  C212 5590   6.686   1.097   4.067  0.1547 -0.9505 -0.2802
   41DOPC  H12R 5591   6.757   1.026   4.020  0.0907 -0.9354 -0.4013
   41DOPC  H12S 5592   6.716   1.085   4.173  0.4881 -2.6896 -0.5368
   41DOPC  C213 5593   6.716   1.241   4.015  0.2088 -0.1823 -0.4010
   41DOPC  H13R 5594   6.683   1.305   4.099  1.3160 -1.1187  0.7805
   41DOPC  H13S 5595   6.661   1.263   3.921  1.8076  0.0700 -1.3250
   41DOPC  C214 5596   6.864   1.271   3.970 -0.6745  0.3684  0.0861
   41DOPC  H14R 5597   6.898   1.198   3.894 -0.1306  0.3113  0.3770
   41DOPC  H14S 5598   6.933   1.261   4.057 -1.9889 -0.4224  1.0902
   41DOPC  C215 5599   6.876   1.410   3.911  0.3863 -0.2412  0.2564
   41DOPC  H15R 5600   6.846   1.483   3.989 -1.8789 -1.7249  0.8852
   41DOPC  H15S 5601   6.799   1.417   3.831  0.0665 -0.4992  0.5379
   41DOPC  C216 5602   7.015   1.440   3.864 -0.0372 -0.0231 -0.0391
   41DOPC  H16R 5603   7.043   1.378   3.776  0.5671  1.2794 -0.7994
   41DOPC  H16S 5604   7.088   1.407   3.942  1.0251 -1.6589 -1.6387
   41DOPC  C217 5605   7.015   1.585   3.821 -0.2943 -0.1022  0.7078
   41DOPC  H17R 5606   7.120   1.622   3.831 -1.1723  2.8143 -0.0420
   41DOPC  H17S 5607   6.968   1.647   3.901  0.1077  2.4346 -0.9072
   41DOPC  C218 5608   6.951   1.625   3.683  0.5337 -0.4615 -0.4541
   41DOPC  H18R 5609   6.846   1.590   3.675  0.0775  0.7620  0.0020
   41DOPC  H18S 5610   7.011   1.585   3.598  0.8272 -1.3984  0.1727
   41DOPC  H18T 5611   6.950   1.736   3.685  1.5448 -0.4448 -0.2219
   41DOPC   C33 5612   5.601   0.360   4.515 -0.7755 -0.2719 -0.0307
   41DOPC   H3X 5613   5.634   0.443   4.582 -0.6355  0.5344 -1.0878
   41DOPC   H3Y 5614   5.518   0.315   4.573 -1.0070  1.2264  0.8626
   41DOPC   C34 5615   5.545   0.414   4.387  0.1905 -1.3427 -0.1050
   41DOPC   H4X 5616   5.622   0.445   4.313  0.5270 -1.1559  0.3158
   41DOPC   H4Y 5617   5.486   0.505   4.413  3.2361  1.1965 -1.2876
   41DOPC   C35 5618   5.456   0.310   4.330 -1.0660 -0.1758  0.0824
   41DOPC   H5X 5619   5.382   0.283   4.409  0.1955  1.3221  1.8497
   41DOPC   H5Y 5620   5.518   0.228   4.288 -1.5215 -1.1318  1.2245
   41DOPC   C36 5621   5.368   0.370   4.216  0.7055  0.1436  0.1466
   41DOPC   H6X 5622   5.309   0.291   4.166  1.6076  0.0684 -0.8364
   41DOPC   H6Y 5623   5.291   0.444   4.248 -1.9059 -1.9092 -1.0818
   41DOPC   C37 5624   5.451   0.429   4.098 -0.8090  0.4315  0.2501
   41DOPC   H7X 5625   5.504   0.523   4.126  0.9068  0.1054 -1.6918
   41DOPC   H7Y 5626   5.530   0.355   4.072 -1.6099 -0.1230 -0.6637
   41DOPC   C38 5627   5.385   0.471   3.960 -0.0004 -0.2082  0.8574
   41DOPC   H8X 5628   5.305   0.548   3.967  0.7146  0.6526 -0.1387
   41DOPC   H8Y 5629   5.326   0.387   3.917  0.5516  0.2060 -0.7786
   41DOPC   C39 5630   5.489   0.524   3.858 -0.1664  0.6001  0.2509
   41DOPC   H9X 5631   5.512   0.632   3.864 -1.8921  1.0333 -0.2265
   41DOPC  C310 5632   5.556   0.451   3.761 -0.5288 -0.5604 -0.5676
   41DOPC  H10X 5633   5.618   0.501   3.685  0.9696  0.9367  1.5165
   41DOPC  C311 5634   5.545   0.301   3.742 -0.3164  0.0779  0.7150
   41DOPC  H11X 5635   5.471   0.257   3.812 -0.3248 -2.0971 -0.5741
   41DOPC  H11Y 5636   5.643   0.251   3.754  0.1524  0.9417  0.5172
   41DOPC  C312 5637   5.502   0.255   3.601 -0.2910  0.3604  1.1795
   41DOPC  H12X 5638   5.404   0.298   3.575  0.1035  0.6468  0.1067
   41DOPC  H12Y 5639   5.496   0.145   3.616 -0.3855  0.3968  1.4019
   41DOPC  C313 5640   5.603   0.289   3.488 -0.0080  0.1060  0.2666
   41DOPC  H13X 5641   5.624   0.397   3.470  2.0849 -0.1193  1.1403
   41DOPC  H13Y 5642   5.699   0.246   3.523  0.5072 -0.4767 -1.7255
   41DOPC  C314 5643   5.546   0.242   3.350  0.5037  0.3459  0.3012
   41DOPC  H14X 5644   5.517   0.135   3.356  0.7690  0.1934 -0.7959
   41DOPC  H14Y 5645   5.452   0.298   3.330  1.0174  0.8436 -0.8550
   41DOPC  C315 5646   5.656   0.256   3.247 -0.5015  0.1082 -0.0791
   41DOPC  H15X 5647   5.694   0.360   3.238  1.3673 -0.5581 -0.2701
   41DOPC  H15Y 5648   5.610   0.234   3.148 -2.2481 -0.3966  0.8039
   41DOPC  C316 5649   5.776   0.159   3.269  0.8979 -0.3687  0.1959
   41DOPC  H16X 5650   5.824   0.197   3.362  0.7536  2.4348 -0.7506
   41DOPC  H16Y 5651   5.742   0.055   3.282  0.3856 -0.8528 -3.7735
   41DOPC  C317 5652   5.872   0.181   3.154 -0.2808  0.0500  0.3427
   41DOPC  H17X 5653   5.820   0.202   3.058 -0.9997  1.7040  1.0476
   41DOPC  H17Y 5654   5.932   0.272   3.177  1.4415 -1.2192  1.1297
   41DOPC  C318 5655   5.981   0.072   3.140 -0.2024 -0.2712  0.1397
   41DOPC  H18X 5656   5.980   0.002   3.054 -0.8479  1.4230 -1.2826
   41DOPC  H18Y 5657   6.082   0.114   3.161 -0.5219  0.5760  0.0020
   41DOPC  H18Z 5658   5.984   0.003   3.227  2.8309  2.6774  2.6627
   42DOPC     N 5659   0.034   4.816   5.276 -0.9490  0.2315 -0.8249
   42DOPC   C12 5660   8.449   4.893   5.256  0.5087 -0.7066 -0.2808
   42DOPC  H12A 5661   8.481   4.995   5.239 -0.8135 -0.0724  0.8431
   42DOPC  H12B 5662   8.383   4.890   5.342 -2.0834  2.1427 -1.9539
   42DOPC   C13 5663   0.091   4.845   5.408  0.2802  0.1886 -0.7529
   42DOPC  H13A 5664   0.105   4.952   5.404  1.7866  0.0491 -0.0651
   42DOPC  H13B 5665   0.024   4.817   5.488  3.0277 -4.4290  0.3385
   42DOPC  H13C 5666   0.180   4.784   5.416 -0.1216 -0.6364 -2.0979
   42DOPC   C14 5667   0.137   4.836   5.163 -0.3933  0.2675  0.6105
   42DOPC  H14A 5668   0.167   4.940   5.159  1.0284  0.0691  3.3564
   42DOPC  H14B 5669   0.222   4.770   5.168 -1.0203 -0.6315 -0.2337
   42DOPC  H14C 5670   0.094   4.809   5.068 -2.2264  1.5514  1.0267
   42DOPC   C15 5671   0.006   4.667   5.293  0.8348  0.2090 -0.2833
   42DOPC  H15A 5672   0.091   4.605   5.270  0.8211 -0.6946  1.8480
   42DOPC  H15B 5673   8.456   4.634   5.235 -1.1034 -0.8662  2.9033
   42DOPC  H15C 5674   8.499   4.655   5.392 -0.8135 -2.7806 -1.2365
   42DOPC   C11 5675   8.356   4.849   5.139 -0.2532 -0.1585 -0.0548
   42DOPC  H11A 5676   8.292   4.933   5.105 -0.8349 -0.3404  0.5593
   42DOPC  H11B 5677   8.422   4.824   5.054 -0.0496  2.1309 -0.6375
   42DOPC     P 5678   8.127   4.762   5.220 -0.4583 -0.2249  0.0120
   42DOPC   O13 5679   8.138   4.884   5.306  0.0917  0.2756 -0.4394
   42DOPC   O14 5680   8.083   4.640   5.285 -0.2103  0.4812 -0.4920
   42DOPC   O12 5681   8.276   4.735   5.164  0.2916 -0.3102 -0.1291
   42DOPC   O11 5682   8.041   4.789   5.097  0.6174 -0.1905  0.5411
   42DOPC    C1 5683   8.088   4.758   4.968  0.5264 -0.4895  0.1976
   42DOPC    HA 5684   8.132   4.656   4.968  3.8614  0.7153  3.4822
   42DOPC    HB 5685   8.165   4.830   4.933  0.2777 -0.7107 -0.8502
   42DOPC    C2 5686   7.981   4.754   4.862  1.1161  0.0289 -0.0143
   42DOPC    HS 5687   8.020   4.690   4.780  1.7077  0.2658  0.0832
   42DOPC   O21 5688   7.952   4.884   4.813 -0.0201 -0.0544 -0.2327
   42DOPC   C21 5689   7.999   4.913   4.701 -0.1382 -0.6043 -0.3853
   42DOPC   O22 5690   8.073   4.839   4.637 -0.0222 -0.4173 -0.4238
   42DOPC   C22 5691   7.947   5.054   4.662 -0.5778 -0.1387  0.9284
   42DOPC   H2R 5692   7.978   5.130   4.737  0.5180  0.3519  0.0015
   42DOPC   H2S 5693   7.836   5.057   4.657 -0.6323  2.9467  2.0274
   42DOPC    C3 5694   7.848   4.686   4.915 -0.1500 -0.3061 -0.1511
   42DOPC    HX 5695   7.803   4.766   4.977  3.6234  1.4967  0.5877
   42DOPC    HY 5696   7.855   4.604   4.990 -1.1418 -1.9027 -1.7362
   42DOPC   O31 5697   7.760   4.647   4.807 -0.5079  0.2531  0.1827
   42DOPC   C31 5698   7.782   4.527   4.740  0.2738  0.7056  0.0322
   42DOPC   O32 5699   7.871   4.448   4.765  0.0953 -0.7113  0.3448
   42DOPC   C32 5700   7.681   4.509   4.627  0.2118 -0.0847 -0.7073
   42DOPC   H2X 5701   7.675   4.399   4.609 -1.0541 -0.0375 -0.6969
   42DOPC   H2Y 5702   7.581   4.549   4.655  0.9441  1.0949  0.3121
   42DOPC   C23 5703   7.988   5.090   4.514  0.4520  0.0113 -0.1171
   42DOPC   H3R 5704   7.924   5.180   4.500 -0.4207 -0.7459 -1.1090
   42DOPC   H3S 5705   7.959   5.005   4.449 -0.2484 -0.5286  0.8839
   42DOPC   C24 5706   8.136   5.126   4.491  0.0178 -0.0609  0.1520
   42DOPC   H4R 5707   8.187   5.030   4.509  1.5996  0.0370 -3.0798
   42DOPC   H4S 5708   8.166   5.217   4.548  0.0958 -0.7185  1.1760
   42DOPC   C25 5709   8.155   5.174   4.348 -0.2900 -0.0955  0.0213
   42DOPC   H5R 5710   8.090   5.260   4.321  1.6299  0.9135 -1.6961
   42DOPC   H5S 5711   8.143   5.085   4.282 -0.1171 -0.0994 -0.0040
   42DOPC   C26 5712   8.296   5.230   4.323 -0.3014 -0.3150  0.2015
   42DOPC   H6R 5713   8.374   5.155   4.346 -2.6170 -2.8105  0.4097
   42DOPC   H6S 5714   8.310   5.306   4.403 -0.9695 -0.7771  0.7692
   42DOPC   C27 5715   8.325   5.262   4.170  0.0821  0.0542 -0.3846
   42DOPC   H7R 5716   8.252   5.339   4.138 -2.9937 -1.2458  2.8700
   42DOPC   H7S 5717   8.299   5.184   4.096  0.3977 -0.3567 -0.0702
   42DOPC   C28 5718   8.464   5.321   4.133 -0.2756  0.3784  0.1790
   42DOPC   H8R 5719   8.485   5.397   4.212  1.4842 -0.7890  0.8855
   42DOPC   H8S 5720   8.459   5.383   4.041  1.5310  0.4020  0.0695
   42DOPC   C29 5721   0.048   5.235   4.118  0.1716  0.6593  0.3851
   42DOPC   H9R 5722   0.113   5.227   4.206  0.7882  1.0181 -0.0332
   42DOPC  C210 5723   0.102   5.198   4.000  0.2304  0.0556  0.1178
   42DOPC  H10R 5724   0.199   5.146   3.989 -0.8085 -1.6701 -1.5372
   42DOPC  C211 5725   0.044   5.213   3.859 -0.6235  0.5036 -0.0643
   42DOPC  H11R 5726   8.501   5.291   3.851  0.4677  1.4890 -2.0038
   42DOPC  H11S 5727   8.532   5.122   3.815  0.1117  1.0576 -2.0997
   42DOPC  C212 5728   0.171   5.255   3.771  0.0858 -0.4880 -0.2263
   42DOPC  H12R 5729   0.150   5.230   3.665  0.5284 -1.9638  0.0149
   42DOPC  H12S 5730   0.267   5.204   3.796 -0.2380 -2.1019 -2.0257
   42DOPC  C213 5731   0.209   5.408   3.783 -0.1778  0.1051  0.1974
   42DOPC  H13R 5732   0.258   5.442   3.877  0.2094  0.3237 -0.0788
   42DOPC  H13S 5733   0.121   5.473   3.764  1.5458  3.0140  1.5590
   42DOPC  C214 5734   0.317   5.429   3.674  0.2164  0.3659 -0.2879
   42DOPC  H14R 5735   0.257   5.414   3.581  0.2637 -0.8313 -0.1470
   42DOPC  H14S 5736   0.389   5.344   3.675  0.6400  0.7103 -0.7889
   42DOPC  C215 5737   0.387   5.563   3.682 -0.5022 -0.0571 -0.5755
   42DOPC  H15R 5738   0.426   5.584   3.784 -0.9983  2.6208 -0.8801
   42DOPC  H15S 5739   0.323   5.647   3.649  0.7223  1.0249 -0.2579
   42DOPC  C216 5740   0.504   5.559   3.584  0.0069  0.0921 -0.2304
   42DOPC  H16R 5741   0.459   5.534   3.486 -1.3130  3.3727 -0.6088
   42DOPC  H16S 5742   0.564   5.470   3.612 -0.0619  0.4409  1.0922
   42DOPC  C217 5743   0.594   5.683   3.578 -0.2660  1.0792  0.0680
   42DOPC  H17R 5744   0.644   5.694   3.677  1.2322  0.8690 -0.6320
   42DOPC  H17S 5745   0.543   5.782   3.571 -1.7094  0.3232 -0.5575
   42DOPC  C218 5746   0.687   5.676   3.458 -0.0213 -0.1013  0.0398
   42DOPC  H18R 5747   0.631   5.624   3.377 -1.1312  0.5528  0.3640
   42DOPC  H18S 5748   0.772   5.607   3.474  2.4961  2.8441  0.4725
   42DOPC  H18T 5749   0.718   5.777   3.421  0.8522  0.1334  1.3410
   42DOPC   C33 5750   7.733   4.568   4.493  0.0722 -0.3534  0.5284
   42DOPC   H3X 5751   7.634   4.569   4.441  0.2231 -0.0798  0.2385
   42DOPC   H3Y 5752   7.807   4.501   4.445  0.1199  0.2085 -0.2083
   42DOPC   C34 5753   7.777   4.715   4.498 -0.6235 -0.1667  0.0991
   42DOPC   H4X 5754   7.879   4.714   4.541 -1.0095  0.4680  1.0737
   42DOPC   H4Y 5755   7.714   4.770   4.571 -3.6381 -2.6578 -0.3741
   42DOPC   C35 5756   7.812   4.768   4.357 -0.2035  0.0140 -0.8190
   42DOPC   H5X 5757   7.860   4.686   4.299 -0.2497 -0.3156 -0.3998
   42DOPC   H5Y 5758   7.888   4.848   4.370 -0.0448  0.1805 -2.5308
   42DOPC   C36 5759   7.684   4.840   4.298 -0.1769  0.2019  0.5522
   42DOPC   H6X 5760   7.606   4.763   4.284 -0.0666  0.1407  0.2582
   42DOPC   H6Y 5761   7.635   4.906   4.373 -0.0206 -0.4348  1.2242
   42DOPC   C37 5762   7.719   4.911   4.165 -0.0254  0.1831 -0.5559
   42DOPC   H7X 5763   7.685   5.017   4.166  3.2262  1.3249  0.4554
   42DOPC   H7Y 5764   7.830   4.906   4.160 -0.0148  1.2574 -1.6840
   42DOPC   C38 5765   7.656   4.849   4.034  0.1898 -0.2901  0.0413
   42DOPC   H8X 5766   7.546   4.840   4.046 -0.2756 -1.7792 -3.8247
   42DOPC   H8Y 5767   7.693   4.744   4.029 -0.9057 -0.6987  0.3729
   42DOPC   C39 5768   7.693   4.929   3.908 -0.0804 -0.4625 -0.2710
   42DOPC   H9X 5769   7.786   4.988   3.911 -2.9463  4.6857 -0.0474
   42DOPC  C310 5770   7.630   4.916   3.791 -0.5851 -0.1654 -0.0205
   42DOPC  H10X 5771   7.664   4.971   3.702 -0.3304  0.9973  0.7642
   42DOPC  C311 5772   7.508   4.828   3.761  0.0333  0.2664 -0.2997
   42DOPC  H11X 5773   7.497   4.747   3.836 -0.5029  0.5049 -0.1187
   42DOPC  H11Y 5774   7.531   4.766   3.672  0.6831 -0.3630  0.2960
   42DOPC  C312 5775   7.373   4.904   3.738  0.0553  0.6067 -0.7920
   42DOPC  H12X 5776   7.351   4.953   3.835  1.8093 -0.4214  0.1672
   42DOPC  H12Y 5777   7.291   4.832   3.717 -0.2275  1.3564 -2.4638
   42DOPC  C313 5778   7.376   4.999   3.621 -0.8147 -0.3691 -0.2418
   42DOPC  H13X 5779   7.449   5.075   3.657 -1.0531 -0.1568 -0.2032
   42DOPC  H13Y 5780   7.420   4.951   3.531 -0.9639 -0.1226 -0.4476
   42DOPC  C314 5781   7.244   5.052   3.571 -0.6284 -0.4392 -0.5249
   42DOPC  H14X 5782   7.177   4.963   3.565 -3.0683  1.3299 -0.9159
   42DOPC  H14Y 5783   7.198   5.120   3.645 -0.7774 -0.0739 -0.9502
   42DOPC  C315 5784   7.248   5.113   3.436 -0.5767 -0.6633 -0.0881
   42DOPC  H15X 5785   7.150   5.121   3.385  0.7598  1.5463 -2.5930
   42DOPC  H15Y 5786   7.304   5.049   3.364 -2.9515  0.0566 -2.7560
   42DOPC  C316 5787   7.323   5.246   3.445  0.1421  0.1071 -0.4875
   42DOPC  H16X 5788   7.419   5.241   3.501 -0.1247 -0.8899 -0.1037
   42DOPC  H16Y 5789   7.325   5.278   3.338 -0.7252 -0.8188 -0.8014
   42DOPC  C317 5790   7.241   5.353   3.525 -0.1232 -0.4002 -0.0168
   42DOPC  H17X 5791   7.136   5.361   3.491 -0.3162  1.9857  0.9000
   42DOPC  H17Y 5792   7.235   5.319   3.631  1.5146 -2.2917 -0.4700
   42DOPC  C318 5793   7.310   5.488   3.515  0.7840  0.1325  0.6891
   42DOPC  H18X 5794   7.412   5.487   3.559  0.9695  0.6882  0.2777
   42DOPC  H18Y 5795   7.309   5.514   3.407  0.0624 -1.7117  0.1998
   42DOPC  H18Z 5796   7.252   5.565   3.571 -1.2586 -1.4918  0.9645
   43DOPC     N 5797   3.790   2.574   5.802  0.3671  0.9291  0.0508
   43DOPC   C12 5798   3.688   2.641   5.713  0.4125 -0.7527  0.5333
   43DOPC  H12A 5799   3.712   2.746   5.718  1.3425 -0.8711 -0.8700
   43DOPC  H12B 5800   3.595   2.619   5.764  0.0509 -1.8712 -0.5414
   43DOPC   C13 5801   3.793   2.620   5.937 -0.0576  0.3575 -0.4013
   43DOPC  H13A 5802   3.805   2.725   5.960  1.3648 -0.2006  1.7173
   43DOPC  H13B 5803   3.714   2.593   6.006  0.6643  0.8454  0.6347
   43DOPC  H13C 5804   3.873   2.572   5.991 -0.2884 -0.9679 -1.2123
   43DOPC   C14 5805   3.924   2.580   5.732  0.0603 -0.1815 -0.1845
   43DOPC  H14A 5806   4.006   2.545   5.792 -0.0500 -1.7137 -0.8866
   43DOPC  H14B 5807   3.913   2.516   5.646  1.6295 -0.8726  0.1140
   43DOPC  H14C 5808   3.941   2.680   5.693 -1.6169  0.6660  1.1096
   43DOPC   C15 5809   3.747   2.424   5.819  0.0525  0.6257 -0.1260
   43DOPC  H15A 5810   3.734   2.376   5.723  0.4463 -1.8805  0.9923
   43DOPC  H15B 5811   3.652   2.411   5.868  0.7938 -0.6968  1.0290
   43DOPC  H15C 5812   3.822   2.357   5.858 -0.6401 -0.0466  0.0771
   43DOPC   C11 5813   3.672   2.602   5.559 -0.6812 -0.4266 -1.1360
   43DOPC  H11A 5814   3.573   2.646   5.535 -0.2528  1.0278 -0.4044
   43DOPC  H11B 5815   3.751   2.660   5.505  0.5771 -0.5119  0.5280
   43DOPC     P 5816   3.782   2.411   5.431  0.3277  0.2194  0.1154
   43DOPC   O13 5817   3.808   2.268   5.456 -0.3024 -0.1458 -0.0518
   43DOPC   O14 5818   3.901   2.497   5.428 -0.1792  0.0342 -0.4668
   43DOPC   O12 5819   3.682   2.462   5.546  0.0507 -0.0430  0.8303
   43DOPC   O11 5820   3.697   2.432   5.301 -0.1756 -0.0127  0.2828
   43DOPC    C1 5821   3.654   2.340   5.207  0.3308 -0.2607 -0.3057
   43DOPC    HA 5822   3.543   2.340   5.205  0.3391 -0.2034 -0.8827
   43DOPC    HB 5823   3.684   2.236   5.231  0.6594 -0.2744 -0.7674
   43DOPC    C2 5824   3.705   2.357   5.060  0.0495  0.5187 -0.9595
   43DOPC    HS 5825   3.698   2.262   5.004  1.2659  0.4979 -1.0925
   43DOPC   O21 5826   3.838   2.418   5.067  0.5111 -0.0687  0.1782
   43DOPC   C21 5827   3.932   2.328   5.069 -0.1322  0.2134 -0.2149
   43DOPC   O22 5828   3.920   2.207   5.057  0.2593  0.0592 -0.4407
   43DOPC   C22 5829   4.077   2.386   5.087  0.2087 -0.4910  0.1292
   43DOPC   H2R 5830   4.144   2.302   5.057 -0.9548 -1.5083  0.2853
   43DOPC   H2S 5831   4.097   2.404   5.194  0.2242  1.2445 -0.1414
   43DOPC    C3 5832   3.621   2.473   4.981  0.1069 -0.6755  0.2428
   43DOPC    HX 5833   3.631   2.567   5.040 -0.9994 -1.2044  1.3231
   43DOPC    HY 5834   3.517   2.435   4.989 -0.4347  0.7802  0.4392
   43DOPC   O31 5835   3.664   2.495   4.841  0.6489 -0.5381 -0.1776
   43DOPC   C31 5836   3.741   2.597   4.811  0.5233  0.1616  0.0670
   43DOPC   O32 5837   3.808   2.662   4.891  0.0586 -0.3126 -0.3718
   43DOPC   C32 5838   3.733   2.625   4.658  0.4042 -0.7419 -0.1427
   43DOPC   H2X 5839   3.796   2.550   4.605  0.3977 -1.1245  0.3759
   43DOPC   H2Y 5840   3.627   2.627   4.624  0.5593 -2.9950 -0.9675
   43DOPC   C23 5841   4.096   2.507   4.998 -1.0374 -0.7813  0.1017
   43DOPC   H3R 5842   4.190   2.563   5.019 -0.1184 -1.9726 -0.6879
   43DOPC   H3S 5843   4.024   2.585   5.031  1.7307  1.1680  1.9783
   43DOPC   C24 5844   4.100   2.490   4.845  0.2634  0.0234 -0.5830
   43DOPC   H4R 5845   4.002   2.442   4.821  1.6244 -2.6338 -1.2442
   43DOPC   H4S 5846   4.179   2.426   4.799 -1.1522 -0.8989 -1.8493
   43DOPC   C25 5847   4.134   2.624   4.777  0.0238  0.8300  0.3876
   43DOPC   H5R 5848   4.219   2.672   4.830  1.4015  0.3396 -1.2710
   43DOPC   H5S 5849   4.049   2.694   4.787 -1.2557 -0.9559  3.0447
   43DOPC   C26 5850   4.153   2.606   4.626 -0.0532  0.2602  0.0404
   43DOPC   H6R 5851   4.068   2.559   4.573 -0.3917  1.0869 -0.1710
   43DOPC   H6S 5852   4.238   2.535   4.623 -0.7938 -0.6767  0.7122
   43DOPC   C27 5853   4.185   2.742   4.548 -0.0954  0.5821 -0.1421
   43DOPC   H7R 5854   4.260   2.795   4.610 -0.0479  0.3327  0.0166
   43DOPC   H7S 5855   4.096   2.808   4.543 -1.2031 -0.7795  0.9229
   43DOPC   C28 5856   4.247   2.709   4.411  0.5434  0.2296  0.8590
   43DOPC   H8R 5857   4.336   2.643   4.417  0.1569 -1.0511 -3.8332
   43DOPC   H8S 5858   4.289   2.804   4.372 -1.2603  0.5948 -0.2957
   43DOPC   C29 5859   4.144   2.658   4.309 -0.0783 -0.2473 -0.5575
   43DOPC   H9R 5860   4.119   2.553   4.329 -0.7109  0.1276  0.7188
   43DOPC  C210 5861   4.083   2.719   4.210 -0.5390  0.2519 -0.5749
   43DOPC  H10R 5862   4.032   2.657   4.135  0.5228  0.5795 -1.5961
   43DOPC  C211 5863   4.104   2.868   4.177 -0.3912  0.2854 -0.0685
   43DOPC  H11R 5864   4.171   2.913   4.254 -1.7977  0.6722  0.9773
   43DOPC  H11S 5865   4.005   2.918   4.172 -2.2719 -3.0219  0.7302
   43DOPC  C212 5866   4.186   2.878   4.044  0.0661  0.1275  0.2573
   43DOPC  H12R 5867   4.288   2.832   4.049  0.4366  0.9946  3.7462
   43DOPC  H12S 5868   4.201   2.985   4.022 -1.9402  0.2485 -0.7353
   43DOPC  C213 5869   4.112   2.843   3.915  0.0001 -0.3689  0.7763
   43DOPC  H13R 5870   4.027   2.911   3.894  0.1326 -0.7765 -1.2801
   43DOPC  H13S 5871   4.051   2.753   3.936 -0.8533  0.0621  0.2201
   43DOPC  C214 5872   4.194   2.825   3.789 -0.1271 -0.1556 -0.0612
   43DOPC  H14R 5873   4.291   2.781   3.821 -0.4324 -0.5806  0.2985
   43DOPC  H14S 5874   4.204   2.923   3.738 -2.4053  0.2854  0.2503
   43DOPC  C215 5875   4.142   2.726   3.679  0.4255 -0.2511 -1.3292
   43DOPC  H15R 5876   4.163   2.629   3.730  0.7326  0.3222 -0.3395
   43DOPC  H15S 5877   4.201   2.706   3.586 -2.2819 -0.7284 -3.0611
   43DOPC  C216 5878   3.993   2.742   3.633 -0.2779 -0.2743 -0.4625
   43DOPC  H16R 5879   3.928   2.761   3.721 -1.2379 -1.1426 -0.9517
   43DOPC  H16S 5880   3.964   2.644   3.588  0.1982 -0.3636 -0.5767
   43DOPC  C217 5881   3.973   2.855   3.529  0.0240  0.1661  0.4860
   43DOPC  H17R 5882   4.037   2.835   3.441 -1.6560 -0.4831 -0.6462
   43DOPC  H17S 5883   4.001   2.954   3.570 -0.6233  0.1026  1.1124
   43DOPC  C218 5884   3.826   2.858   3.486 -0.1192  0.9457 -0.4382
   43DOPC  H18R 5885   3.752   2.868   3.567 -1.1335 -1.5831 -0.9489
   43DOPC  H18S 5886   3.814   2.763   3.428 -0.3330  0.2685  0.6953
   43DOPC  H18T 5887   3.815   2.940   3.412 -1.5071  3.8491  2.7112
   43DOPC   C33 5888   3.794   2.766   4.620  0.2373 -0.6339  0.0395
   43DOPC   H3X 5889   3.904   2.774   4.636  0.5586  1.7692 -2.5808
   43DOPC   H3Y 5890   3.752   2.850   4.679 -0.0703 -2.1214  2.0402
   43DOPC   C34 5891   3.766   2.787   4.468 -0.1782 -0.6147  0.0977
   43DOPC   H4X 5892   3.670   2.745   4.430  0.1941  0.3367 -2.0464
   43DOPC   H4Y 5893   3.851   2.743   4.411  1.2390 -0.4884  2.0299
   43DOPC   C35 5894   3.771   2.935   4.436 -0.0494  0.6433  0.7391
   43DOPC   H5X 5895   3.876   2.971   4.442  0.2877  0.1030 -1.1130
   43DOPC   H5Y 5896   3.709   2.996   4.504 -1.9870 -1.4170  0.9428
   43DOPC   C36 5897   3.727   2.959   4.290  0.4100  0.2941 -0.1808
   43DOPC   H6X 5898   3.775   2.884   4.223  1.0407  0.6467 -0.1246
   43DOPC   H6Y 5899   3.616   2.950   4.290  0.1795  2.5845  0.8866
   43DOPC   C37 5900   3.758   3.096   4.233  0.2203  0.1559  0.2913
   43DOPC   H7X 5901   3.704   3.168   4.298  2.0489  0.7665  1.2172
   43DOPC   H7Y 5902   3.862   3.133   4.247  0.0024  0.5085  1.0174
   43DOPC   C38 5903   3.698   3.111   4.094  0.4343 -0.9482 -0.1263
   43DOPC   H8X 5904   3.721   3.216   4.067  0.2242 -0.8341  0.1383
   43DOPC   H8Y 5905   3.588   3.094   4.094  0.1049  0.9522 -0.6250
   43DOPC   C39 5906   3.772   3.020   3.993  0.0699 -0.3246  0.5250
   43DOPC   H9X 5907   3.801   2.921   4.031 -0.9889 -0.7998  0.1448
   43DOPC  C310 5908   3.787   3.052   3.862 -0.0316  0.0627  0.6279
   43DOPC  H10X 5909   3.837   2.976   3.801 -0.5170 -0.7414  1.2196
   43DOPC  C311 5910   3.726   3.169   3.796  0.1768  0.0607  0.3084
   43DOPC  H11X 5911   3.811   3.233   3.766 -0.2378  0.8084  0.6973
   43DOPC  H11Y 5912   3.667   3.229   3.869  1.8008 -0.0783  1.8090
   43DOPC  C312 5913   3.643   3.137   3.669  0.7989 -0.3432 -0.4569
   43DOPC  H12X 5914   3.566   3.063   3.699  1.3136 -1.2052 -1.1744
   43DOPC  H12Y 5915   3.710   3.109   3.584  0.3790  2.2783 -1.7469
   43DOPC  C313 5916   3.558   3.256   3.628  0.3451  0.5760 -0.2087
   43DOPC  H13X 5917   3.510   3.287   3.723  0.2847  0.0245 -0.0554
   43DOPC  H13Y 5918   3.636   3.327   3.593  0.7054 -0.0875 -0.7751
   43DOPC  C314 5919   3.469   3.227   3.502  0.3360  0.3257 -0.5627
   43DOPC  H14X 5920   3.494   3.313   3.436  0.2049  0.4908 -0.3949
   43DOPC  H14Y 5921   3.485   3.128   3.453 -2.6295 -0.6546  0.2912
   43DOPC  C315 5922   3.316   3.243   3.529 -0.1352 -0.2450  0.3759
   43DOPC  H15X 5923   3.316   3.342   3.579  0.5200  0.4526 -0.9457
   43DOPC  H15Y 5924   3.284   3.166   3.603 -2.3019 -0.8366 -1.1084
   43DOPC  C316 5925   3.227   3.243   3.405  0.3891 -0.6200  0.4751
   43DOPC  H16X 5926   3.294   3.270   3.322  0.2064 -1.1372  0.1499
   43DOPC  H16Y 5927   3.198   3.139   3.376  3.6703 -1.8696  1.2425
   43DOPC  C317 5928   3.111   3.338   3.432  0.1180  0.0334  0.0423
   43DOPC  H17X 5929   3.152   3.430   3.479  0.6300 -0.0084 -0.3094
   43DOPC  H17Y 5930   3.050   3.359   3.341 -2.4344 -2.2560  1.1001
   43DOPC  C318 5931   3.012   3.289   3.532  0.3751  0.4683  0.3867
   43DOPC  H18X 5932   2.939   3.371   3.552 -0.5886  0.5953 -3.0445
   43DOPC  H18Y 5933   2.960   3.201   3.489  0.4303  0.3115  0.6428
   43DOPC  H18Z 5934   3.067   3.256   3.623  0.0916 -1.9846 -0.2559
   44DOPC     N 5935   4.154   3.008   5.872 -0.0779 -0.6788 -0.8915
   44DOPC   C12 5936   4.267   2.945   5.948  0.2126 -0.2288 -0.1636
   44DOPC  H12A 5937   4.239   2.848   5.988 -1.0616 -1.2379 -3.2313
   44DOPC  H12B 5938   4.294   3.016   6.025  0.9693 -3.1092  2.4400
   44DOPC   C13 5939   4.209   3.109   5.775 -0.6889 -0.2384 -0.1811
   44DOPC  H13A 5940   4.267   3.058   5.701 -1.2954 -0.9918 -0.1511
   44DOPC  H13B 5941   4.138   3.166   5.717 -0.7398  2.4306  2.2237
   44DOPC  H13C 5942   4.269   3.177   5.834 -1.2494  0.1376 -0.0281
   44DOPC   C14 5943   4.058   3.078   5.965 -0.3291 -0.1305 -0.3873
   44DOPC  H14A 5944   4.050   3.009   6.047 -2.7580 -0.6351 -0.9697
   44DOPC  H14B 5945   4.087   3.178   5.992 -1.8803  0.2838 -0.1589
   44DOPC  H14C 5946   3.959   3.092   5.925 -0.2918  2.5500  0.3161
   44DOPC   C15 5947   4.077   2.918   5.783  0.6486 -0.3157 -0.6356
   44DOPC  H15A 5948   4.045   2.833   5.842 -1.4327  1.2098  0.5620
   44DOPC  H15B 5949   4.138   2.880   5.702  0.7113 -0.0849 -0.6988
   44DOPC  H15C 5950   3.997   2.969   5.732  1.1399  1.3758  0.2207
   44DOPC   C11 5951   4.395   2.909   5.866  0.0480 -0.0048  0.5476
   44DOPC  H11A 5952   4.446   3.007   5.851  2.1371 -0.9634  1.1703
   44DOPC  H11B 5953   4.460   2.847   5.930 -0.7633 -0.0162  1.3750
   44DOPC     P 5954   4.364   2.687   5.727  0.3044  0.5592 -0.3377
   44DOPC   O13 5955   4.254   2.649   5.642 -0.2971 -0.2358  0.5677
   44DOPC   O14 5956   4.368   2.621   5.860  0.3308  0.1428 -0.0895
   44DOPC   O12 5957   4.354   2.840   5.742 -0.5342 -0.4978 -0.8289
   44DOPC   O11 5958   4.502   2.667   5.647 -0.1549 -0.1751 -0.6629
   44DOPC    C1 5959   4.522   2.557   5.560 -0.5862  0.4540  0.5793
   44DOPC    HA 5960   4.436   2.489   5.543 -0.0919 -0.5392  1.8847
   44DOPC    HB 5961   4.603   2.498   5.606 -0.4880  0.3620  0.2923
   44DOPC    C2 5962   4.574   2.596   5.424 -0.2164  0.3415 -0.2751
   44DOPC    HS 5963   4.648   2.679   5.435 -0.7922  0.8492 -0.1445
   44DOPC   O21 5964   4.471   2.629   5.339 -0.0332 -0.3492 -0.2014
   44DOPC   C21 5965   4.421   2.752   5.339  0.1387 -0.2323  0.0709
   44DOPC   O22 5966   4.474   2.851   5.388  0.5411  0.1138  0.1839
   44DOPC   C22 5967   4.311   2.744   5.234  1.1359 -0.6624  0.0121
   44DOPC   H2R 5968   4.223   2.692   5.278 -0.1439  1.8331  0.5915
   44DOPC   H2S 5969   4.353   2.688   5.148  0.7697 -1.9596  0.6533
   44DOPC    C3 5970   4.656   2.478   5.358  0.9097  0.2204 -0.4561
   44DOPC    HX 5971   4.598   2.385   5.370  0.6683  0.6994  3.1275
   44DOPC    HY 5972   4.752   2.453   5.408  0.5829  0.1916  0.1626
   44DOPC   O31 5973   4.681   2.503   5.219  0.3786 -0.5350  0.2405
   44DOPC   C31 5974   4.598   2.463   5.132 -0.1294 -0.2838 -0.0748
   44DOPC   O32 5975   4.501   2.386   5.139 -0.4446  0.0726 -0.1354
   44DOPC   C32 5976   4.641   2.517   4.993 -0.0300 -0.2571 -0.3419
   44DOPC   H2X 5977   4.728   2.583   5.013 -1.0406  1.6651 -1.9609
   44DOPC   H2Y 5978   4.694   2.433   4.943 -1.0266 -1.1928  0.1305
   44DOPC   C23 5979   4.250   2.884   5.191  0.6455  0.4449  0.2277
   44DOPC   H3R 5980   4.331   2.948   5.151 -0.0259  1.3043  0.2036
   44DOPC   H3S 5981   4.219   2.936   5.285  4.0334  0.3979  1.5069
   44DOPC   C24 5982   4.140   2.860   5.095 -0.3254 -0.4398  0.3328
   44DOPC   H4R 5983   4.057   2.801   5.140 -0.3012 -0.9135 -0.2269
   44DOPC   H4S 5984   4.176   2.794   5.013  0.8880 -1.0340  1.3161
   44DOPC   C25 5985   4.103   2.994   5.030 -0.8244  0.0977  0.2181
   44DOPC   H5R 5986   4.195   3.054   5.011 -1.7747  1.9637  1.3220
   44DOPC   H5S 5987   4.037   3.051   5.099 -1.7017  1.1154 -1.3712
   44DOPC   C26 5988   4.029   2.965   4.898  0.0287  0.5701  0.0173
   44DOPC   H6R 5989   3.936   2.907   4.916 -0.1687  0.7975 -0.2631
   44DOPC   H6S 5990   4.079   2.900   4.823 -0.8994  1.8386 -1.7817
   44DOPC   C27 5991   3.987   3.091   4.826 -0.1445  0.3610  0.2401
   44DOPC   H7R 5992   3.936   3.145   4.909  1.4310  1.0225  0.8125
   44DOPC   H7S 5993   3.914   3.062   4.747 -0.5545 -2.6841  1.5819
   44DOPC   C28 5994   4.098   3.179   4.764  0.1730 -0.2606  0.2699
   44DOPC   H8R 5995   4.166   3.219   4.843 -0.6915  2.4851 -0.2546
   44DOPC   H8S 5996   4.045   3.270   4.727 -0.3735 -0.8915 -0.5350
   44DOPC   C29 5997   4.173   3.088   4.670  0.2599 -1.1953 -0.1635
   44DOPC   H9R 5998   4.244   3.015   4.712 -0.3149 -0.6102  1.9728
   44DOPC  C210 5999   4.174   3.091   4.536 -0.0023  0.3429 -1.1924
   44DOPC  H10R 6000   4.248   3.029   4.482 -0.7940  0.2814 -2.2402
   44DOPC  C211 6001   4.111   3.198   4.450  0.3126  0.1925 -0.2657
   44DOPC  H11R 6002   4.070   3.270   4.524  4.7681  1.0822  1.6613
   44DOPC  H11S 6003   4.036   3.151   4.383 -0.0761  1.3997 -0.7063
   44DOPC  C212 6004   4.213   3.275   4.375 -0.8740 -0.1638  0.0252
   44DOPC  H12R 6005   4.258   3.197   4.309 -0.7580 -0.4721  0.4685
   44DOPC  H12S 6006   4.293   3.325   4.433 -1.2242  0.2140  0.1892
   44DOPC  C213 6007   4.162   3.376   4.281  0.8550 -0.8307 -0.0490
   44DOPC  H13R 6008   4.098   3.456   4.326  0.3516 -0.0838 -1.9799
   44DOPC  H13S 6009   4.095   3.326   4.208 -0.0374  0.1004  0.0970
   44DOPC  C214 6010   4.257   3.452   4.186  0.4453  0.7921  0.0223
   44DOPC  H14R 6011   4.364   3.439   4.212  0.4871  1.3325  0.1385
   44DOPC  H14S 6012   4.247   3.563   4.187  2.1462  0.9920 -0.8400
   44DOPC  C215 6013   4.229   3.415   4.040 -0.5165 -0.4119 -0.1747
   44DOPC  H15R 6014   4.280   3.492   3.978 -3.4155  2.7013  1.0021
   44DOPC  H15S 6015   4.121   3.423   4.016 -0.7010 -0.7948  0.4970
   44DOPC  C216 6016   4.285   3.270   4.009  0.3065  0.6627 -1.1322
   44DOPC  H16R 6017   4.226   3.201   4.073  0.6991  1.2228 -0.1475
   44DOPC  H16S 6018   4.390   3.246   4.039 -0.1554 -1.9303 -1.2906
   44DOPC  C217 6019   4.279   3.224   3.865 -0.4429  0.1445  0.4129
   44DOPC  H17R 6020   4.306   3.117   3.851 -0.0861  0.5246 -2.4721
   44DOPC  H17S 6021   4.367   3.275   3.819  0.7520 -2.6242 -0.5975
   44DOPC  C218 6022   4.148   3.235   3.785 -0.4031  0.3144  0.1904
   44DOPC  H18R 6023   4.066   3.180   3.837 -1.9420  2.6829  0.4310
   44DOPC  H18S 6024   4.162   3.189   3.686 -0.7781 -0.8258  0.6548
   44DOPC  H18T 6025   4.111   3.338   3.762  0.6280  0.9800  1.3708
   44DOPC   C33 6026   4.522   2.570   4.913  0.6039 -0.5962  0.1299
   44DOPC   H3X 6027   4.481   2.669   4.941  1.1314 -0.6676  1.2013
   44DOPC   H3Y 6028   4.433   2.502   4.919 -1.5652  2.1663  1.2823
   44DOPC   C34 6029   4.537   2.565   4.763  0.2966  1.0127  0.4598
   44DOPC   H4X 6030   4.440   2.548   4.711 -0.2562 -1.9832  2.2510
   44DOPC   H4Y 6031   4.583   2.464   4.755  1.5324  1.6617 -1.2094
   44DOPC   C35 6032   4.623   2.670   4.693  0.5096  0.3021 -0.3437
   44DOPC   H5X 6033   4.715   2.703   4.746  1.7869 -0.7876 -1.7899
   44DOPC   H5Y 6034   4.561   2.761   4.703 -0.9097 -0.7566  1.1447
   44DOPC   C36 6035   4.638   2.625   4.547  0.1425  0.0273  0.3257
   44DOPC   H6X 6036   4.717   2.549   4.531 -2.0147 -1.8653 -2.1967
   44DOPC   H6Y 6037   4.549   2.564   4.518  0.6982 -0.9899  0.7159
   44DOPC   C37 6038   4.663   2.743   4.447 -0.4375 -0.0745  0.4692
   44DOPC   H7X 6039   4.566   2.791   4.421 -0.2939 -0.4503 -0.8484
   44DOPC   H7Y 6040   4.728   2.817   4.498  1.1493 -1.6085  0.7607
   44DOPC   C38 6041   4.737   2.695   4.320 -0.7883  0.4201 -0.0965
   44DOPC   H8X 6042   4.684   2.613   4.266  0.3629  0.7500 -1.8036
   44DOPC   H8Y 6043   4.838   2.666   4.356 -0.1057  2.0285 -0.6366
   44DOPC   C39 6044   4.747   2.811   4.227 -0.0882  0.6860  0.2188
   44DOPC   H9X 6045   4.818   2.889   4.260  1.0886 -0.1423 -0.2988
   44DOPC  C310 6046   4.660   2.855   4.130 -0.7858 -0.0326  0.3228
   44DOPC  H10X 6047   4.678   2.950   4.079 -1.0481 -1.0284 -1.7289
   44DOPC  C311 6048   4.539   2.785   4.071  0.3842 -0.1036  0.1132
   44DOPC  H11X 6049   4.477   2.872   4.041  1.0433  0.3365  0.0177
   44DOPC  H11Y 6050   4.494   2.714   4.144  1.2751 -0.4537  0.3397
   44DOPC  C312 6051   4.560   2.700   3.948  0.9432 -0.3876 -0.1369
   44DOPC  H12X 6052   4.670   2.701   3.928  1.6026 -3.3666  2.6023
   44DOPC  H12Y 6053   4.507   2.740   3.858  0.5527 -0.7378 -0.0643
   44DOPC  C313 6054   4.528   2.549   3.983  0.0401 -0.2800 -0.3374
   44DOPC  H13X 6055   4.556   2.522   4.087 -3.1100 -1.2749  0.3704
   44DOPC  H13Y 6056   4.417   2.543   3.984 -0.0398 -0.1390 -2.6666
   44DOPC  C314 6057   4.586   2.454   3.881  0.1997  0.4689 -0.0337
   44DOPC  H14X 6058   4.697   2.458   3.890  0.4150 -0.0680 -1.9370
   44DOPC  H14Y 6059   4.550   2.354   3.913  0.6358 -0.4142 -2.1330
   44DOPC  C315 6060   4.541   2.474   3.736 -0.2972 -0.3898 -0.3199
   44DOPC  H15X 6061   4.552   2.583   3.718 -2.4432  0.2930  1.8233
   44DOPC  H15Y 6062   4.434   2.447   3.722 -0.5207  0.4665 -0.2988
   44DOPC  C316 6063   4.624   2.410   3.626 -0.3564 -0.3340  0.6795
   44DOPC  H16X 6064   4.592   2.442   3.525 -2.0970 -0.5668  1.1293
   44DOPC  H16Y 6065   4.729   2.433   3.655 -0.0556 -0.3324 -0.3776
   44DOPC  C317 6066   4.606   2.261   3.619 -0.1447 -0.3078  0.1226
   44DOPC  H17X 6067   4.610   2.220   3.722  1.0919 -1.1893 -0.2632
   44DOPC  H17Y 6068   4.501   2.253   3.582 -0.7783  0.7470  1.6040
   44DOPC  C318 6069   4.702   2.186   3.525  0.5627  0.0853 -0.7830
   44DOPC  H18X 6070   4.691   2.079   3.552 -2.2501  0.8163  1.4216
   44DOPC  H18Y 6071   4.678   2.203   3.417 -0.7939  0.6180 -0.4171
   44DOPC  H18Z 6072   4.810   2.207   3.545  0.4435 -0.0925  0.0400
   45DOPC     N 6073   7.166   8.156   4.996  0.2112  0.0179  0.0980
   45DOPC   C12 6074   7.215   8.181   5.136 -0.0732 -0.3466  0.0954
   45DOPC  H12A 6075   7.125   8.216   5.184 -1.1099  0.1995 -2.1139
   45DOPC  H12B 6076   7.285   8.264   5.138 -2.3270  1.8219 -2.5782
   45DOPC   C13 6077   7.078   8.037   4.998 -0.1783  0.0729 -0.4521
   45DOPC  H13A 6078   7.135   7.948   5.020 -0.1083  0.0254 -0.8177
   45DOPC  H13B 6079   7.003   8.038   5.076  0.2323  1.2434 -0.0555
   45DOPC  H13C 6080   7.029   8.032   4.901 -0.6795 -1.2824 -0.1453
   45DOPC   C14 6081   7.283   8.137   4.901  0.2660  0.0695  0.1045
   45DOPC  H14A 6082   7.331   8.044   4.927  0.4588  0.7166  2.2286
   45DOPC  H14B 6083   7.245   8.132   4.800 -0.4113  0.6307  0.3275
   45DOPC  H14C 6084   7.359   8.214   4.907  1.3424 -0.8218 -1.3603
   45DOPC   C15 6085   7.082   8.266   4.956  0.6298 -0.9576  0.1138
   45DOPC  H15A 6086   7.038   8.256   4.858 -1.6846  2.0175  0.7106
   45DOPC  H15B 6087   7.127   8.364   4.968 -0.8275 -0.4130  1.3634
   45DOPC  H15C 6088   6.991   8.269   5.013  1.0730 -1.9930  0.9181
   45DOPC   C11 6089   7.290   8.070   5.213 -1.0065  0.0065  0.2526
   45DOPC  H11A 6090   7.299   8.116   5.314 -1.6136  2.4733 -0.7388
   45DOPC  H11B 6091   7.235   7.974   5.223  2.8678 -2.4752  0.0597
   45DOPC     P 6092   7.529   8.158   5.162  0.0558 -0.0651  0.2814
   45DOPC   O13 6093   7.592   8.168   5.297 -0.7763  0.3479  0.2937
   45DOPC   O14 6094   7.478   8.277   5.093 -0.4174  0.4173 -0.5782
   45DOPC   O12 6095   7.415   8.051   5.155 -0.2968 -0.3683 -0.0406
   45DOPC   O11 6096   7.633   8.079   5.073 -0.3768  0.0073 -0.1882
   45DOPC    C1 6097   7.759   8.134   5.054 -0.4977  0.2545 -0.2256
   45DOPC    HA 6098   7.832   8.051   5.070  0.4066  1.0842  0.0453
   45DOPC    HB 6099   7.776   8.215   5.128 -0.7391  1.1505 -1.1415
   45DOPC    C2 6100   7.769   8.193   4.918 -0.0163  0.2634 -0.0469
   45DOPC    HS 6101   7.741   8.300   4.927 -1.9225 -0.3327  2.7315
   45DOPC   O21 6102   7.693   8.117   4.824  0.2787 -0.0997  0.6254
   45DOPC   C21 6103   7.634   8.176   4.718  0.5191 -0.8026 -0.1079
   45DOPC   O22 6104   7.639   8.297   4.694  0.6087  0.4761 -0.1556
   45DOPC   C22 6105   7.551   8.069   4.632  0.1456  0.1759 -0.1873
   45DOPC   H2R 6106   7.442   8.088   4.639  0.2811  0.4908  1.3527
   45DOPC   H2S 6107   7.556   7.967   4.674  0.6847  0.2396 -0.0903
   45DOPC    C3 6108   7.920   8.191   4.879 -0.4543  1.0566  0.1807
   45DOPC    HX 6109   7.961   8.088   4.873 -0.0658  1.1497  1.0792
   45DOPC    HY 6110   7.966   8.245   4.965  0.2332  0.0923  0.4396
   45DOPC   O31 6111   7.950   8.260   4.754 -0.3895  0.0355  0.4405
   45DOPC   C31 6112   7.977   8.397   4.765 -0.0278  0.7194  0.5119
   45DOPC   O32 6113   7.970   8.457   4.867  0.1082  0.4742 -0.4517
   45DOPC   C32 6114   8.019   8.447   4.625 -0.6321 -0.4620  0.3414
   45DOPC   H2X 6115   7.983   0.016   4.609  0.3368 -0.4554 -2.2521
   45DOPC   H2Y 6116   8.130   8.440   4.622 -0.7189 -2.0667 -0.9459
   45DOPC   C23 6117   7.592   8.063   4.484  0.2447  0.2604  0.0617
   45DOPC   H3R 6118   7.700   8.035   4.479  0.9319  2.6330  0.5226
   45DOPC   H3S 6119   7.580   8.159   4.431 -1.5816 -0.6097 -1.2017
   45DOPC   C24 6120   7.502   7.957   4.412  0.1659 -0.1513 -0.1032
   45DOPC   H4R 6121   7.396   7.992   4.417  0.2308 -0.0616  2.7807
   45DOPC   H4S 6122   7.519   7.861   4.464 -0.8415  0.8513  2.2543
   45DOPC   C25 6123   7.534   7.939   4.265 -0.3830  0.2270  0.3336
   45DOPC   H5R 6124   7.520   8.035   4.210 -4.1187 -0.4010 -0.0823
   45DOPC   H5S 6125   7.467   7.866   4.214  1.0826  0.0574 -1.4598
   45DOPC   C26 6126   7.688   7.892   4.235 -0.1741 -0.3003 -0.0580
   45DOPC   H6R 6127   7.698   7.810   4.310  0.9249 -0.8412 -0.7570
   45DOPC   H6S 6128   7.760   7.976   4.247  1.5744 -1.8323  0.5719
   45DOPC   C27 6129   7.704   7.826   4.097 -0.0655 -0.2826  0.1797
   45DOPC   H7R 6130   7.660   7.899   4.025  0.7938  0.4179  0.3463
   45DOPC   H7S 6131   7.639   7.737   4.108  0.2880 -0.3719  1.8434
   45DOPC   C28 6132   7.854   7.804   4.058  0.0759 -0.0882 -0.0318
   45DOPC   H8R 6133   7.911   7.735   4.124  0.5482  0.3120 -0.0166
   45DOPC   H8S 6134   7.909   7.900   4.069 -2.6834  1.5013  0.8613
   45DOPC   C29 6135   7.865   7.743   3.919  0.0510  0.0325 -0.3806
   45DOPC   H9R 6136   7.884   7.635   3.916 -0.4976 -0.1427  1.1876
   45DOPC  C210 6137   7.852   7.821   3.808 -0.0757 -0.9758 -0.3029
   45DOPC  H10R 6138   7.873   7.786   3.706  1.2580  0.1150 -0.4342
   45DOPC  C211 6139   7.824   7.969   3.794 -0.4720  0.2447 -0.2167
   45DOPC  H11R 6140   7.907   8.023   3.745 -1.7811  2.5094 -0.0949
   45DOPC  H11S 6141   7.815   8.014   3.895 -0.2089 -1.1234  0.4488
   45DOPC  C212 6142   7.698   8.003   3.718 -0.4741 -0.0485 -0.3459
   45DOPC  H12R 6143   7.697   8.114   3.716  2.5689  0.1017  0.9079
   45DOPC  H12S 6144   7.609   7.959   3.769  2.3551 -1.7456  3.6135
   45DOPC  C213 6145   7.685   7.955   3.571  0.1861  0.2858 -0.4604
   45DOPC  H13R 6146   7.691   7.845   3.552 -0.7251  0.4249 -1.7191
   45DOPC  H13S 6147   7.771   7.996   3.515  0.6563  0.2878  0.2626
   45DOPC  C214 6148   7.559   8.006   3.506  0.4448  0.3732 -0.2097
   45DOPC  H14R 6149   7.521   8.107   3.533 -1.0564 -0.5769  1.4462
   45DOPC  H14S 6150   7.472   7.943   3.535 -0.3646  2.7334  3.1700
   45DOPC  C215 6151   7.554   8.001   3.349  0.0718  0.2885  1.0241
   45DOPC  H15R 6152   7.573   7.894   3.324  1.7447  1.0093 -0.9936
   45DOPC  H15S 6153   7.637   8.058   3.303  0.5952  0.4925  2.1971
   45DOPC  C216 6154   7.420   8.017   3.282 -0.0474 -0.1464 -0.7441
   45DOPC  H16R 6155   7.401   8.125   3.265 -0.6792 -0.1030  0.1924
   45DOPC  H16S 6156   7.332   7.984   3.342  0.5219 -0.5671 -0.1308
   45DOPC  C217 6157   7.410   7.942   3.153 -0.0569 -0.0855  0.8043
   45DOPC  H17R 6158   7.420   7.832   3.168 -2.6218 -0.5501 -0.3864
   45DOPC  H17S 6159   7.503   7.966   3.097 -0.5431  0.5531  0.2516
   45DOPC  C218 6160   7.281   7.973   3.077  0.1471  0.6190  0.7165
   45DOPC  H18R 6161   7.270   8.083   3.072  0.9672  0.6503 -3.3143
   45DOPC  H18S 6162   7.192   7.926   3.125 -0.9369  0.2474 -1.5225
   45DOPC  H18T 6163   7.280   7.941   2.971  0.6646 -0.6380  1.0623
   45DOPC   C33 6164   7.968   8.347   4.519 -0.0097  0.4760 -0.3081
   45DOPC   H3X 6165   7.869   8.299   4.536  0.7252 -1.2674 -0.7375
   45DOPC   H3Y 6166   8.041   8.264   4.509  0.2205  0.1776  2.7982
   45DOPC   C34 6167   7.955   8.417   4.382  0.1436  0.2821  0.3819
   45DOPC   H4X 6168   8.051   8.455   4.341  0.1603 -0.3238 -0.1479
   45DOPC   H4Y 6169   7.882   8.501   4.389  0.3329  0.4252  0.6713
   45DOPC   C35 6170   7.907   8.319   4.271  0.4180  0.4072  0.3677
   45DOPC   H5X 6171   7.798   8.320   4.296  0.5439  2.4004  1.0495
   45DOPC   H5Y 6172   7.954   8.219   4.270  1.2005  0.7498 -1.4436
   45DOPC   C36 6173   7.922   8.383   4.131  0.0162 -0.2653  0.0575
   45DOPC   H6X 6174   7.894   8.491   4.128 -0.3789 -0.3539 -3.1011
   45DOPC   H6Y 6175   8.021   8.370   4.082  0.0845  1.5112 -0.3558
   45DOPC   C37 6176   7.825   8.325   4.023  0.0649  0.4732  1.1447
   45DOPC   H7X 6177   7.826   8.214   4.018  2.9596  0.4248  0.8064
   45DOPC   H7Y 6178   7.723   8.347   4.060  0.3197 -0.1369  2.2641
   45DOPC   C38 6179   7.847   8.381   3.883 -0.5254  0.5757  0.1156
   45DOPC   H8X 6180   7.778   8.330   3.812  0.8654  1.3485 -1.8913
   45DOPC   H8Y 6181   7.949   8.347   3.855 -1.7477 -4.0238  0.4393
   45DOPC   C39 6182   7.835   8.528   3.872  0.1083 -0.2071 -0.3070
   45DOPC   H9X 6183   7.808   0.052   3.961  2.4662  1.1196 -0.3718
   45DOPC  C310 6184   7.838   0.061   3.753  0.0742  0.3133  0.6295
   45DOPC  H10X 6185   7.822   0.170   3.755 -0.9827  0.1630  0.6680
   45DOPC  C311 6186   7.866   8.530   3.620  0.7576 -0.4385  0.3201
   45DOPC  H11X 6187   7.813   0.057   3.544 -1.2054 -1.9379  0.3651
   45DOPC  H11Y 6188   7.824   8.427   3.613  0.5661 -0.3282 -0.1772
   45DOPC  C312 6189   8.009   0.011   3.571  0.0805  0.2729  0.1212
   45DOPC  H12X 6190   8.078   8.483   3.632  0.2791  1.3258  1.0112
   45DOPC  H12Y 6191   8.035   0.119   3.579 -2.0792  0.7733  1.0777
   45DOPC  C313 6192   8.025   8.525   3.416  0.6985 -0.4709 -0.1607
   45DOPC  H13X 6193   7.997   8.422   3.389  1.1353 -0.7708  0.5007
   45DOPC  H13Y 6194   7.959   0.056   3.356 -0.4131 -2.4478 -1.2146
   45DOPC  C314 6195   8.171   0.006   3.384  0.3468  0.3863  0.0332
   45DOPC  H14X 6196   8.193   0.110   3.414 -2.4075  0.9023  0.4935
   45DOPC  H14Y 6197   8.236   8.474   3.444 -1.0107 -1.0443 -0.0251
   45DOPC  C315 6198   8.195   8.534   3.234 -0.0215  0.0431  0.5112
   45DOPC  H15X 6199   8.107   0.048   3.187 -0.9596 -1.1842  0.9286
   45DOPC  H15Y 6200   8.208   8.424   3.223 -1.4062 -0.1691  0.7953
   45DOPC  C316 6201   8.322   0.072   3.176  0.4090  0.3328 -0.3219
   45DOPC  H16X 6202   8.330   0.174   3.218 -3.5096  1.4119 -1.7467
   45DOPC  H16Y 6203   8.406   0.014   3.221 -0.2717 -1.3455 -1.1502
   45DOPC  C317 6204   8.334   0.081   3.026  0.6200  0.2021 -0.1738
   45DOPC  H17X 6205   8.268   0.146   2.965  1.1570 -0.0441 -1.0417
   45DOPC  H17Y 6206   8.433   0.125   3.000  0.1316  1.2469 -0.3443
   45DOPC  C318 6207   8.312   8.484   2.958  0.0815  0.2272  0.4648
   45DOPC  H18X 6208   8.209   8.442   2.957  1.1809 -2.6657 -0.8887
   45DOPC  H18Y 6209   8.353   8.504   2.857 -1.6098  1.9354  0.0436
   45DOPC  H18Z 6210   8.375   8.399   2.991  1.1500  1.2831  1.2606
   46DOPC     N 6211   7.820   6.177   5.230 -0.4118 -0.7541  0.1930
   46DOPC   C12 6212   7.729   6.105   5.126  0.3157 -0.1206  0.0456
   46DOPC  H12A 6213   7.776   6.128   5.031 -1.1376 -2.0538 -1.2144
   46DOPC  H12B 6214   7.634   6.155   5.116  0.8307  0.8561 -0.1231
   46DOPC   C13 6215   7.849   6.321   5.189  0.2884 -0.4888 -0.0270
   46DOPC  H13A 6216   7.762   6.383   5.172  0.7790  0.1559 -0.2673
   46DOPC  H13B 6217   7.921   6.375   5.250 -0.1882 -0.8011  0.8259
   46DOPC  H13C 6218   7.906   6.324   5.098 -1.3164  3.2934 -1.1151
   46DOPC   C14 6219   7.950   6.115   5.235  0.2269  0.0382  0.3255
   46DOPC  H14A 6220   8.015   6.123   5.149  0.7294 -0.8819  0.6018
   46DOPC  H14B 6221   8.004   6.159   5.318  1.5908 -0.0429 -0.4768
   46DOPC  H14C 6222   7.942   6.009   5.255 -2.9394  0.2108  0.4521
   46DOPC   C15 6223   7.758   6.188   5.370  0.2989 -0.2997 -0.1775
   46DOPC  H15A 6224   7.726   6.087   5.393 -0.5887 -0.0598 -0.3239
   46DOPC  H15B 6225   7.670   6.250   5.371  1.1637  0.9725  1.1981
   46DOPC  H15C 6226   7.822   6.235   5.443  2.8346 -0.7186 -1.9790
   46DOPC   C11 6227   7.706   5.955   5.143  0.0256 -0.0906  0.2131
   46DOPC  H11A 6228   7.647   5.944   5.236  1.3872  0.9032  1.2329
   46DOPC  H11B 6229   7.636   5.923   5.062 -1.3294 -1.2353  1.7694
   46DOPC     P 6230   7.911   5.828   5.018 -0.1678 -0.2433 -0.1997
   46DOPC   O13 6231   7.865   5.693   4.977  0.3776  0.2625 -0.1218
   46DOPC   O14 6232   8.055   5.848   5.046  0.2650  0.6267  0.1249
   46DOPC   O12 6233   7.822   5.873   5.141 -0.4115 -0.3466  0.2931
   46DOPC   O11 6234   7.871   5.927   4.903  0.6637 -0.4559  0.2567
   46DOPC    C1 6235   7.785   5.886   4.790  0.4229  0.0553  0.0033
   46DOPC    HA 6236   7.738   5.972   4.739  0.6137  0.2728  0.1936
   46DOPC    HB 6237   7.700   5.820   4.815  0.3923  0.2035  0.2880
   46DOPC    C2 6238   7.871   5.814   4.675 -0.0721 -0.3097 -0.8671
   46DOPC    HS 6239   7.882   5.707   4.704 -2.1743 -1.6670 -4.4633
   46DOPC   O21 6240   8.006   5.872   4.659  0.2536  0.2215 -0.0725
   46DOPC   C21 6241   8.108   5.803   4.606 -0.1017 -0.0848  0.5645
   46DOPC   O22 6242   8.101   5.679   4.580  0.0732  0.4118 -0.8613
   46DOPC   C22 6243   8.218   5.894   4.568 -0.6776 -0.4148 -0.4622
   46DOPC   H2R 6244   8.242   5.948   4.663  1.0864 -2.1278  0.1267
   46DOPC   H2S 6245   8.192   5.975   4.496  2.1213  0.5692 -0.4700
   46DOPC    C3 6246   7.801   5.814   4.541 -0.7271  0.6893  0.3514
   46DOPC    HX 6247   7.822   5.908   4.486  1.9327 -0.0091  0.0328
   46DOPC    HY 6248   7.690   5.810   4.544 -0.8286  0.4038 -2.0755
   46DOPC   O31 6249   7.852   5.718   4.444 -0.1690  0.3492  0.7054
   46DOPC   C31 6250   7.785   5.594   4.430  0.2330  0.3608 -0.1173
   46DOPC   O32 6251   7.674   5.575   4.475  0.1861 -0.0104 -0.3661
   46DOPC   C32 6252   7.862   5.501   4.336  0.3298 -0.3518 -0.6400
   46DOPC   H2X 6253   7.961   5.543   4.307  1.0741 -0.3990  1.6761
   46DOPC   H2Y 6254   7.873   5.402   4.383  0.8561 -0.6198 -1.3165
   46DOPC   C23 6255   8.351   5.826   4.527  0.2967  0.1741  0.1677
   46DOPC   H3R 6256   8.356   5.729   4.582 -1.0610  0.8101  1.5042
   46DOPC   H3S 6257   8.440   5.881   4.565  0.4310  0.2927 -0.3217
   46DOPC   C24 6258   8.375   5.812   4.373  0.3783  0.3222  0.5118
   46DOPC   H4R 6259   8.481   5.782   4.358  0.3393  0.4687 -0.0823
   46DOPC   H4S 6260   8.368   5.914   4.331 -0.6208  0.1339  0.1938
   46DOPC   C25 6261   8.279   5.716   4.292  0.3660 -0.1115  0.2951
   46DOPC   H5R 6262   8.175   5.748   4.314  0.6630  1.4243 -0.3661
   46DOPC   H5S 6263   8.293   5.611   4.323 -1.0743 -1.4050 -2.9841
   46DOPC   C26 6264   8.296   5.722   4.141  0.4909  0.1663  0.7845
   46DOPC   H6R 6265   8.398   5.686   4.116 -0.1695 -2.7088  1.9071
   46DOPC   H6S 6266   8.284   5.827   4.106 -3.1069 -0.1736  0.6054
   46DOPC   C27 6267   8.174   5.647   4.075 -0.3021 -0.5644 -0.2307
   46DOPC   H7R 6268   8.071   5.667   4.111 -0.1906  0.3749 -0.4330
   46DOPC   H7S 6269   8.194   5.539   4.097  2.0435  0.2740  2.4018
   46DOPC   C28 6270   8.181   5.667   3.919  0.2605  0.5799  0.2291
   46DOPC   H8R 6271   8.185   5.778   3.905  1.4561  0.3830 -1.1669
   46DOPC   H8S 6272   8.089   5.635   3.868  0.1290 -0.3620  1.0256
   46DOPC   C29 6273   8.311   5.616   3.854 -0.2341 -0.1957 -0.2693
   46DOPC   H9R 6274   8.402   5.652   3.904  0.7594 -0.6572 -1.6796
   46DOPC  C210 6275   8.320   5.553   3.734 -0.1533  0.7984 -0.3284
   46DOPC  H10R 6276   8.420   5.535   3.692 -0.2457 -0.2362 -0.1471
   46DOPC  C211 6277   8.209   5.501   3.646  0.4011  0.4084  0.4808
   46DOPC  H11R 6278   8.216   5.557   3.550 -3.4462 -0.7987 -0.6855
   46DOPC  H11S 6279   8.110   5.534   3.684 -0.4378 -0.6300 -0.7040
   46DOPC  C212 6280   8.222   5.353   3.604  0.6145 -0.0844 -0.2439
   46DOPC  H12R 6281   8.317   5.322   3.556  2.0572  0.3047  2.2156
   46DOPC  H12S 6282   8.150   5.315   3.529 -0.2124  0.3516  0.3108
   46DOPC  C213 6283   8.202   5.270   3.735 -1.3481  0.5676 -0.4100
   46DOPC  H13R 6284   8.105   5.284   3.787 -0.9204  1.3079  0.2119
   46DOPC  H13S 6285   8.278   5.293   3.813  1.4695 -2.9138 -1.8314
   46DOPC  C214 6286   8.229   5.120   3.712 -0.8299  0.0120  0.0777
   46DOPC  H14R 6287   8.338   5.096   3.712 -0.9452 -0.7351  2.4484
   46DOPC  H14S 6288   8.183   5.094   3.614 -0.8947  1.5682 -0.3258
   46DOPC  C215 6289   8.146   5.035   3.817  0.0640  0.0915 -0.5717
   46DOPC  H15R 6290   8.037   5.037   3.796 -0.3177 -0.4602  1.2444
   46DOPC  H15S 6291   8.174   5.081   3.914  3.3461  1.9018 -2.2085
   46DOPC  C216 6292   8.207   4.887   3.818  0.1286 -0.5910 -0.5090
   46DOPC  H16R 6293   8.313   4.894   3.849 -0.2913  0.2007  0.7671
   46DOPC  H16S 6294   8.211   4.852   3.712 -0.7740  0.6077 -0.9637
   46DOPC  C217 6295   8.127   4.785   3.910 -0.7854 -0.1537  0.2952
   46DOPC  H17R 6296   8.168   4.683   3.894  0.5865  0.4092  0.1133
   46DOPC  H17S 6297   8.022   4.792   3.873 -0.9777  2.5952  1.1425
   46DOPC  C218 6298   8.143   4.827   4.055  0.5833  0.2539  0.4353
   46DOPC  H18R 6299   8.104   4.742   4.115  1.2533 -1.2807 -1.2231
   46DOPC  H18S 6300   8.079   4.917   4.067  0.7453  0.2565  1.4188
   46DOPC  H18T 6301   8.244   4.863   4.085  0.3023  1.2479  0.2081
   46DOPC   C33 6302   7.785   5.475   4.200  0.0882  0.0402 -0.0200
   46DOPC   H3X 6303   7.753   5.575   4.163 -0.7737 -0.2022  0.0678
   46DOPC   H3Y 6304   7.705   5.398   4.207  1.1521 -1.1714 -0.7469
   46DOPC   C34 6305   7.877   5.411   4.092 -0.4907 -0.5220  0.0780
   46DOPC   H4X 6306   7.886   5.301   4.104  0.0464 -0.4920 -0.0727
   46DOPC   H4Y 6307   7.978   5.456   4.096 -0.1113 -1.2945 -0.4509
   46DOPC   C35 6308   7.826   5.408   3.945  0.7092  0.1534 -0.2622
   46DOPC   H5X 6309   7.902   5.356   3.883 -0.6626 -0.9352 -1.0900
   46DOPC   H5Y 6310   7.818   5.514   3.916  2.7141  0.5739  0.6063
   46DOPC   C36 6311   7.690   5.337   3.924  0.5078  0.0502  0.2467
   46DOPC   H6X 6312   7.722   5.232   3.940  2.7676  1.0296  3.4106
   46DOPC   H6Y 6313   7.613   5.365   3.999  0.8135 -0.7921  0.8866
   46DOPC   C37 6314   7.635   5.346   3.783  0.1379  0.8913 -0.0754
   46DOPC   H7X 6315   7.558   5.268   3.766  1.5005 -0.0790 -2.1157
   46DOPC   H7Y 6316   7.591   5.441   3.746 -0.9936 -0.3474 -2.0259
   46DOPC   C38 6317   7.752   5.301   3.687  0.3016  0.9386  0.0686
   46DOPC   H8X 6318   7.789   5.199   3.712  2.2783  1.2617 -1.3372
   46DOPC   H8Y 6319   7.846   5.359   3.699  0.2347  0.9807  0.4033
   46DOPC   C39 6320   7.709   5.291   3.541 -0.1669  0.4997 -0.2825
   46DOPC   H9X 6321   7.653   5.198   3.520 -4.0164  2.2962  1.1205
   46DOPC  C310 6322   7.724   5.379   3.444 -0.1713 -0.4324 -0.3348
   46DOPC  H10X 6323   7.673   5.368   3.347 -1.1068 -2.6809  0.3522
   46DOPC  C311 6324   7.790   5.518   3.466 -0.0054 -0.1847 -0.5525
   46DOPC  H11X 6325   7.859   5.548   3.385 -1.3990 -0.1494 -1.7654
   46DOPC  H11Y 6326   7.847   5.522   3.562 -2.6132  2.2562  1.0474
   46DOPC  C312 6327   7.684   5.625   3.484  0.2377  0.3305  0.0942
   46DOPC  H12X 6328   7.735   5.717   3.520 -1.2142  2.3289 -2.5433
   46DOPC  H12Y 6329   7.615   5.606   3.568  0.7244  2.6709  1.1195
   46DOPC  C313 6330   7.621   5.662   3.353  0.4611 -0.2515 -0.2967
   46DOPC  H13X 6331   7.699   5.699   3.282  2.4989 -1.3542  1.2398
   46DOPC  H13Y 6332   7.574   5.571   3.310 -0.8321  0.0237  0.4794
   46DOPC  C314 6333   7.509   5.754   3.369 -0.3577 -0.2835 -0.0706
   46DOPC  H14X 6334   7.439   5.750   3.283  0.0410  1.2240 -0.5001
   46DOPC  H14Y 6335   7.451   5.714   3.455  0.3723  0.4726  0.8024
   46DOPC  C315 6336   7.543   5.901   3.394 -0.3581 -0.4141  0.1558
   46DOPC  H15X 6337   7.613   5.902   3.480 -0.4034  1.6264  0.2107
   46DOPC  H15Y 6338   7.455   5.965   3.418  1.3838  1.5529  1.6341
   46DOPC  C316 6339   7.607   5.976   3.277 -0.2524 -0.0319 -0.2842
   46DOPC  H16X 6340   7.693   5.917   3.239 -0.3034  0.5285 -1.2863
   46DOPC  H16Y 6341   7.539   5.989   3.190  0.1894  2.7860 -0.2997
   46DOPC  C317 6342   7.654   6.117   3.315 -0.1083 -0.8951  0.0929
   46DOPC  H17X 6343   7.706   6.170   3.232 -0.4512  2.0553  1.6305
   46DOPC  H17Y 6344   7.568   6.181   3.344 -1.6213 -2.2655 -1.1483
   46DOPC  C318 6345   7.742   6.120   3.439 -0.4967 -0.0687 -0.2358
   46DOPC  H18X 6346   7.812   6.206   3.439  2.1375 -2.0274  2.0391
   46DOPC  H18Y 6347   7.687   6.106   3.534 -0.5574 -1.8957 -0.5041
   46DOPC  H18Z 6348   7.815   6.036   3.432  1.4185  1.4845  0.0886
   47DOPC     N 6349   4.947   4.803   5.770  0.0899 -0.2651  0.1513
   47DOPC   C12 6350   4.965   4.935   5.687  0.1547  0.0750  0.0190
   47DOPC  H12A 6351   5.067   4.939   5.649  0.1607 -0.3725 -0.0151
   47DOPC  H12B 6352   4.961   5.020   5.753  0.6734 -0.9653  1.4352
   47DOPC   C13 6353   4.981   4.682   5.695 -0.5126  1.0457 -0.4113
   47DOPC  H13A 6354   4.995   4.603   5.767  0.7468  0.9669 -0.7236
   47DOPC  H13B 6355   4.899   4.662   5.627 -0.8763  1.7650 -0.1926
   47DOPC  H13C 6356   5.080   4.691   5.653 -0.6041  2.8408 -0.3153
   47DOPC   C14 6357   4.807   4.801   5.834  1.1114  0.1395  0.0479
   47DOPC  H14A 6358   4.791   4.893   5.889  0.3507  0.9474 -1.4685
   47DOPC  H14B 6359   4.727   4.795   5.762  1.4878  1.2206 -0.4810
   47DOPC  H14C 6360   4.804   4.719   5.905  2.8677  0.3763  0.4319
   47DOPC   C15 6361   5.044   4.808   5.882  0.0032  0.0640 -0.3337
   47DOPC  H15A 6362   5.022   4.720   5.940  0.0382 -1.0464 -1.9560
   47DOPC  H15B 6363   5.015   4.888   5.949  1.7085 -1.4205  2.3652
   47DOPC  H15C 6364   5.149   4.808   5.856 -0.0925  1.2558 -0.7922
   47DOPC   C11 6365   4.886   4.956   5.561  1.2153  0.5136 -0.1790
   47DOPC  H11A 6366   4.896   5.059   5.520 -2.4313  0.4408 -1.6997
   47DOPC  H11B 6367   4.942   4.896   5.486  2.1705 -0.0942  0.9878
   47DOPC     P 6368   4.624   5.027   5.552 -0.1287  0.2706  0.4079
   47DOPC   O13 6369   4.660   5.144   5.629  0.1821  0.2792 -0.4278
   47DOPC   O14 6370   4.494   4.963   5.576  0.2519  0.2220 -0.4033
   47DOPC   O12 6371   4.745   4.923   5.578 -0.1306  0.2728 -0.7147
   47DOPC   O11 6372   4.649   5.056   5.400  0.0512 -0.3607  0.4877
   47DOPC    C1 6373   4.614   4.953   5.307  0.0671  0.3144  0.4495
   47DOPC    HA 6374   4.531   4.984   5.240  0.9383  0.5184 -0.5687
   47DOPC    HB 6375   4.580   4.852   5.337 -0.9749 -0.3861 -2.7288
   47DOPC    C2 6376   4.739   4.918   5.218  0.2321 -0.4875  0.3018
   47DOPC    HS 6377   4.828   4.884   5.275  2.6822  2.8952 -1.2411
   47DOPC   O21 6378   4.763   5.038   5.139 -0.2959  0.4414  0.1158
   47DOPC   C21 6379   4.861   5.113   5.185 -0.0478 -0.5249  0.5668
   47DOPC   O22 6380   4.947   5.083   5.266  0.2800  0.5926 -0.9904
   47DOPC   C22 6381   4.854   5.249   5.121 -0.7140 -0.2767  0.2750
   47DOPC   H2R 6382   4.877   5.323   5.201  1.0718 -1.1239  0.6021
   47DOPC   H2S 6383   4.752   5.275   5.085  0.7212 -0.0774 -4.3947
   47DOPC    C3 6384   4.705   4.799   5.118 -0.0793  0.3515  0.4797
   47DOPC    HX 6385   4.594   4.795   5.114 -0.0919  0.7430  0.4397
   47DOPC    HY 6386   4.730   4.704   5.171  3.2369 -0.2107 -1.8354
   47DOPC   O31 6387   4.768   4.804   4.985  0.4700  0.5544 -0.6407
   47DOPC   C31 6388   4.899   4.784   4.979 -0.0905 -0.2013 -0.5730
   47DOPC   O32 6389   4.967   4.757   5.075 -0.3815  0.2878  0.3701
   47DOPC   C32 6390   4.947   4.788   4.831 -0.1763 -0.3049 -0.3811
   47DOPC   H2X 6391   4.890   4.723   4.761  1.3476  1.2682 -3.3156
   47DOPC   H2Y 6392   4.918   4.893   4.807  0.1636 -0.0217  0.4322
   47DOPC   C23 6393   4.968   5.271   5.010 -0.4046 -0.1659  0.3356
   47DOPC   H3R 6394   5.068   5.268   5.059 -1.1910 -0.3767  1.9998
   47DOPC   H3S 6395   4.948   5.375   4.977  0.4532 -0.0094  0.2817
   47DOPC   C24 6396   4.930   5.177   4.887 -0.3538  0.4869 -0.8848
   47DOPC   H4R 6397   4.820   5.171   4.873 -0.1043 -1.4594 -2.5933
   47DOPC   H4S 6398   4.951   5.074   4.923  0.4431  1.1901  0.7637
   47DOPC   C25 6399   4.997   5.201   4.748  0.0140  0.3063 -0.1511
   47DOPC   H5R 6400   5.107   5.185   4.757  0.0238  1.3442  2.8447
   47DOPC   H5S 6401   4.984   5.311   4.734 -0.2683  0.3368  0.3178
   47DOPC   C26 6402   4.930   5.124   4.638 -0.7190  0.0806 -0.3208
   47DOPC   H6R 6403   4.824   5.159   4.638 -0.5239  0.7997 -2.4129
   47DOPC   H6S 6404   4.930   5.014   4.649  2.4230  0.2151  2.7832
   47DOPC   C27 6405   4.983   5.160   4.500  0.5691  0.7202  0.0754
   47DOPC   H7R 6406   5.093   5.160   4.491  0.9450 -1.7540  2.9179
   47DOPC   H7S 6407   4.953   5.267   4.492  0.5288  0.9667  2.5770
   47DOPC   C28 6408   4.921   5.073   4.388  0.1537  0.5149  0.1399
   47DOPC   H8R 6409   4.945   4.970   4.422  1.7886  1.2133  1.2103
   47DOPC   H8S 6410   4.978   5.091   4.295 -1.2901 -2.1428 -1.3736
   47DOPC   C29 6411   4.772   5.086   4.362 -0.3682 -0.0147 -0.0330
   47DOPC   H9R 6412   4.707   5.021   4.422  0.9143 -0.7928  0.5542
   47DOPC  C210 6413   4.714   5.148   4.263  0.0230  0.1103 -0.3392
   47DOPC  H10R 6414   4.605   5.137   4.253  0.1383  0.0317 -1.7650
   47DOPC  C211 6415   4.770   5.231   4.153 -1.0732  0.4140  0.4281
   47DOPC  H11R 6416   4.874   5.202   4.128 -1.9706 -3.5332  0.5322
   47DOPC  H11S 6417   4.761   5.336   4.186 -0.2111  1.2060 -1.6997
   47DOPC  C212 6418   4.684   5.207   4.019  0.0783  0.2745 -0.8075
   47DOPC  H12R 6419   4.578   5.238   4.028 -0.4485 -1.0682 -2.0681
   47DOPC  H12S 6420   4.682   5.098   3.997  1.2734  0.1335 -0.2972
   47DOPC  C213 6421   4.734   5.277   3.894 -0.4399 -0.2607  0.9142
   47DOPC  H13R 6422   4.838   5.245   3.875  0.2969  2.7200 -0.6380
   47DOPC  H13S 6423   4.732   5.386   3.917  1.0959 -0.2511  1.0991
   47DOPC  C214 6424   4.640   5.265   3.770  0.9084 -0.0927 -0.2193
   47DOPC  H14R 6425   4.537   5.295   3.800  0.5984 -3.0879  2.1223
   47DOPC  H14S 6426   4.628   5.158   3.744 -1.1394 -0.0023  0.1826
   47DOPC  C215 6427   4.692   5.347   3.643 -0.0223  0.4883  1.0201
   47DOPC  H15R 6428   4.803   5.343   3.647 -0.0829 -0.3405  2.4154
   47DOPC  H15S 6429   4.646   5.447   3.660 -0.8206  0.5133 -0.9280
   47DOPC  C216 6430   4.637   5.296   3.511  0.0514  0.2607 -0.9777
   47DOPC  H16R 6431   4.661   5.380   3.442 -0.1127  0.3672 -0.9055
   47DOPC  H16S 6432   4.526   5.291   3.518 -0.0090  0.2531 -1.7932
   47DOPC  C217 6433   4.686   5.164   3.455 -0.1333 -0.4334 -0.7561
   47DOPC  H17R 6434   4.673   5.093   3.539 -1.1499 -2.2464 -2.3748
   47DOPC  H17S 6435   4.793   5.165   3.428  0.1686 -1.6643  0.3052
   47DOPC  C218 6436   4.592   5.117   3.341  0.1252  0.1163  1.1362
   47DOPC  H18R 6437   4.617   5.010   3.321 -0.4047  0.4301 -1.6627
   47DOPC  H18S 6438   4.623   5.174   3.251  1.1069  4.1382  3.7568
   47DOPC  H18T 6439   4.483   5.124   3.362 -0.0902  1.1356 -0.1946
   47DOPC   C33 6440   5.101   4.773   4.805  0.1536  1.0203 -0.4188
   47DOPC   H3X 6441   5.173   4.828   4.870  2.7609 -1.6427 -0.8231
   47DOPC   H3Y 6442   5.146   4.672   4.811  1.2076  1.3605 -2.0321
   47DOPC   C34 6443   5.141   4.821   4.665  0.9773  0.6379  0.7491
   47DOPC   H4X 6444   5.099   4.923   4.654 -1.7371 -0.4786 -0.1420
   47DOPC   H4Y 6445   5.082   4.759   4.594  1.8080 -1.3591  1.7412
   47DOPC   C35 6446   5.289   4.814   4.638  0.2358  0.0155  0.4529
   47DOPC   H5X 6447   5.328   4.713   4.663 -2.3426 -1.1825 -0.0459
   47DOPC   H5Y 6448   5.340   4.885   4.706  0.4395  0.8524 -0.5613
   47DOPC   C36 6449   5.338   4.858   4.495 -0.0918  0.0124  0.6468
   47DOPC   H6X 6450   5.316   4.965   4.479  1.3242  0.1509 -0.4481
   47DOPC   H6Y 6451   5.447   4.845   4.511 -0.2276  0.8307  2.4707
   47DOPC   C37 6452   5.268   4.772   4.380  0.4583 -0.5735  0.6704
   47DOPC   H7X 6453   5.311   4.670   4.382 -0.8819 -1.1492  0.6108
   47DOPC   H7Y 6454   5.163   4.778   4.415 -0.1650  0.6885 -1.1955
   47DOPC   C38 6455   5.297   4.843   4.249 -0.0189 -0.3464  0.7107
   47DOPC   H8X 6456   5.407   4.862   4.255 -0.0555  0.4792 -0.7826
   47DOPC   H8Y 6457   5.261   4.948   4.251  0.9799  0.0773 -1.2179
   47DOPC   C39 6458   5.261   4.775   4.122  0.5452  1.0504 -0.5346
   47DOPC   H9X 6459   5.326   4.688   4.105 -0.2017  0.4032 -0.1665
   47DOPC  C310 6460   5.160   4.810   4.042 -0.4590 -0.4111 -0.0479
   47DOPC  H10X 6461   5.135   4.739   3.961  2.5475  0.1482 -1.6511
   47DOPC  C311 6462   5.064   4.924   4.059 -0.0220 -0.9061 -0.1156
   47DOPC  H11X 6463   5.113   5.011   4.108 -1.4409  1.5438 -2.7623
   47DOPC  H11Y 6464   4.970   4.901   4.113  0.6691 -0.3346  1.3802
   47DOPC  C312 6465   5.016   4.956   3.911  0.3853 -0.4024  0.2850
   47DOPC  H12X 6466   5.112   4.990   3.865  0.2527  1.0672  1.0118
   47DOPC  H12Y 6467   4.956   5.050   3.916  0.3004 -0.4757  0.6786
   47DOPC  C313 6468   4.944   4.850   3.832 -0.8875 -0.6200  0.0241
   47DOPC  H13X 6469   5.022   4.772   3.818  0.5627  0.2893  2.3811
   47DOPC  H13Y 6470   4.868   4.801   3.896  1.4712 -1.2125  2.5500
   47DOPC  C314 6471   4.884   4.902   3.703 -0.3532  0.3910  0.7219
   47DOPC  H14X 6472   4.809   4.983   3.716 -0.6942  0.3267 -0.6224
   47DOPC  H14Y 6473   4.961   4.949   3.638 -0.9093  0.8798  0.4051
   47DOPC  C315 6474   4.808   4.806   3.612 -0.0130  0.4573  0.3959
   47DOPC  H15X 6475   4.876   4.723   3.584  1.2043  1.4977  0.1740
   47DOPC  H15Y 6476   4.781   4.862   3.520  2.0936  0.5912 -0.1844
   47DOPC  C316 6477   4.677   4.753   3.678 -0.3068 -0.3143  0.1465
   47DOPC  H16X 6478   4.712   4.718   3.777 -2.0356  1.6059  1.5056
   47DOPC  H16Y 6479   4.615   4.843   3.695 -1.0667 -1.0081  1.1376
   47DOPC  C317 6480   4.606   4.656   3.582 -0.2786  0.2495  0.9243
   47DOPC  H17X 6481   4.670   4.565   3.586  0.3967  0.5321 -1.7488
   47DOPC  H17Y 6482   4.509   4.634   3.632 -1.3215  1.2263 -0.6101
   47DOPC  C318 6483   4.591   4.691   3.434 -0.9647 -0.4105  0.1822
   47DOPC  H18X 6484   4.549   4.794   3.439  0.9904  0.4022  1.6706
   47DOPC  H18Y 6485   4.689   4.687   3.383 -0.5569  0.5955  0.8386
   47DOPC  H18Z 6486   4.524   4.619   3.384 -0.2540 -1.6232  0.9060
   48DOPC     N 6487   6.241   3.246   5.780 -0.0448 -0.5282 -0.0480
   48DOPC   C12 6488   6.238   3.184   5.633  0.0813 -0.3858  0.6700
   48DOPC  H12A 6489   6.290   3.089   5.641 -0.5154 -0.8290 -0.4924
   48DOPC  H12B 6490   6.293   3.255   5.573  0.1028 -0.7361  0.2630
   48DOPC   C13 6491   6.190   3.139   5.872 -0.0275  0.9751 -0.3619
   48DOPC  H13A 6492   6.262   3.061   5.890  0.6665  1.7415  0.2791
   48DOPC  H13B 6493   6.162   3.184   5.967 -1.6601  3.0975 -1.7398
   48DOPC  H13C 6494   6.097   3.101   5.831  0.1348 -1.5990  1.4484
   48DOPC   C14 6495   6.157   3.376   5.783 -0.0861 -0.3238  0.4963
   48DOPC  H14A 6496   6.139   3.408   5.884  2.6421 -1.5399  1.4518
   48DOPC  H14B 6497   6.208   3.455   5.729 -0.0410  0.6170  1.8622
   48DOPC  H14C 6498   6.063   3.360   5.733 -1.7241  0.3370  3.1542
   48DOPC   C15 6499   6.380   3.289   5.812 -0.3846 -0.0904 -0.3532
   48DOPC  H15A 6500   6.406   3.352   5.729 -0.8789 -0.2955 -0.6659
   48DOPC  H15B 6501   6.447   3.204   5.810 -0.3293 -0.1509  1.8366
   48DOPC  H15C 6502   6.394   3.343   5.905  1.4962  0.2551 -0.8122
   48DOPC   C11 6503   6.097   3.162   5.566  0.1268  0.4583  0.0885
   48DOPC  H11A 6504   6.127   3.107   5.475 -2.6057 -0.3130 -0.4381
   48DOPC  H11B 6505   6.034   3.095   5.628 -1.6471  1.6235 -0.3856
   48DOPC     P 6506   6.064   3.370   5.431  0.2583  0.0365  0.2497
   48DOPC   O13 6507   6.210   3.401   5.435  0.0991 -0.4036 -0.0098
   48DOPC   O14 6508   5.970   3.478   5.416  0.0814  0.4282  0.0279
   48DOPC   O12 6509   6.026   3.279   5.546  0.1009 -0.1057  0.0119
   48DOPC   O11 6510   6.037   3.278   5.312  0.0662 -1.0703  0.5704
   48DOPC    C1 6511   5.907   3.218   5.306 -0.4044 -0.0357 -0.2580
   48DOPC    HA 6512   5.832   3.254   5.380 -0.8443 -0.4782 -0.4866
   48DOPC    HB 6513   5.912   3.108   5.320  1.8812  0.3441  3.2589
   48DOPC    C2 6514   5.849   3.236   5.161  0.7765  0.1904  0.3148
   48DOPC    HS 6515   5.748   3.190   5.154  0.5236 -0.0456  3.9477
   48DOPC   O21 6516   5.941   3.185   5.058 -0.2835 -0.3613  0.4412
   48DOPC   C21 6517   5.926   3.057   5.040  0.7207 -0.5397 -0.7010
   48DOPC   O22 6518   5.840   2.983   5.092  0.0966 -0.2019  0.0733
   48DOPC   C22 6519   6.010   3.016   4.920  0.4388 -0.0940 -0.3944
   48DOPC   H2R 6520   6.107   3.067   4.942  0.0804  1.0564 -1.3462
   48DOPC   H2S 6521   5.969   3.072   4.833 -1.6144  0.2619  0.7252
   48DOPC    C3 6522   5.823   3.383   5.125 -0.8864  0.3194 -0.5020
   48DOPC    HX 6523   5.919   3.434   5.151 -0.2393 -1.2273  0.2746
   48DOPC    HY 6524   5.750   3.419   5.200 -0.3904 -1.1432  0.7213
   48DOPC   O31 6525   5.797   3.417   4.986  0.5082 -0.1424 -0.0696
   48DOPC   C31 6526   5.670   3.422   4.942  0.2180 -0.3650 -0.1358
   48DOPC   O32 6527   5.573   3.370   4.997  0.6319  0.0006  0.3624
   48DOPC   C32 6528   5.664   3.501   4.812 -0.2993  0.1439  0.3559
   48DOPC   H2X 6529   5.706   3.600   4.840  0.0794  0.1777 -0.3127
   48DOPC   H2Y 6530   5.734   3.465   4.734  0.8641  0.2984  1.2999
   48DOPC   C23 6531   6.010   2.864   4.911 -1.0183 -0.6532 -0.1139
   48DOPC   H3R 6532   5.903   2.841   4.889 -0.7040 -0.3856 -2.1636
   48DOPC   H3S 6533   6.045   2.822   5.007  0.5531 -3.9914 -1.9942
   48DOPC   C24 6534   6.103   2.817   4.807  0.9211  0.2167 -0.0809
   48DOPC   H4R 6535   6.070   2.858   4.709 -0.0353 -0.8813 -0.2380
   48DOPC   H4S 6536   6.095   2.706   4.810  1.7111  0.1294  4.2698
   48DOPC   C25 6537   6.249   2.829   4.845  0.3411  0.0496  1.3588
   48DOPC   H5R 6538   6.248   2.792   4.949 -1.4021  0.4167  1.4954
   48DOPC   H5S 6539   6.286   2.934   4.839 -0.5614  0.3486  0.8973
   48DOPC   C26 6540   6.346   2.745   4.760 -0.1518 -0.3813  0.0220
   48DOPC   H6R 6541   6.310   2.640   4.767  0.2815 -0.5520 -0.3122
   48DOPC   H6S 6542   6.447   2.756   4.803 -0.5614  1.3691  0.6233
   48DOPC   C27 6543   6.329   2.766   4.608  0.1828  0.0247  0.0580
   48DOPC   H7R 6544   6.349   2.874   4.590 -1.4597  0.3107 -0.1405
   48DOPC   H7S 6545   6.236   2.736   4.556  1.1543  1.2799 -2.6094
   48DOPC   C28 6546   6.438   2.684   4.537  0.0370  0.4668  0.4502
   48DOPC   H8R 6547   6.424   2.577   4.562 -1.1015  0.5270  0.0979
   48DOPC   H8S 6548   6.537   2.703   4.585  0.5878 -1.0215 -0.0461
   48DOPC   C29 6549   6.432   2.708   4.384  0.0320 -0.3796  0.5301
   48DOPC   H9R 6550   6.502   2.785   4.347  0.9800 -0.6656  1.6695
   48DOPC  C210 6551   6.346   2.648   4.302 -0.5279 -0.1990 -0.6504
   48DOPC  H10R 6552   6.336   2.678   4.196  3.5545 -0.2633 -1.2192
   48DOPC  C211 6553   6.258   2.529   4.344 -0.1917 -0.5806 -0.2082
   48DOPC  H11R 6554   6.250   2.505   4.452 -0.2332  0.2582 -0.0179
   48DOPC  H11S 6555   6.300   2.439   4.294 -1.1697 -0.6671 -0.8977
   48DOPC  C212 6556   6.115   2.548   4.284  1.1445  0.6097  0.3616
   48DOPC  H12R 6557   6.079   2.648   4.315  0.0139  1.2030 -2.5767
   48DOPC  H12S 6558   6.051   2.469   4.328  1.0225  0.3144 -0.3410
   48DOPC  C213 6559   6.106   2.535   4.132  0.0557 -0.6610  0.1485
   48DOPC  H13R 6560   6.195   2.483   4.091  0.3115 -0.8136  0.8841
   48DOPC  H13S 6561   6.106   2.637   4.088  0.7534 -1.3558 -1.5431
   48DOPC  C214 6562   5.984   2.457   4.091 -0.1951  0.6367 -0.4691
   48DOPC  H14R 6563   5.895   2.511   4.129 -0.7045  0.4697 -1.3997
   48DOPC  H14S 6564   5.984   2.362   4.148 -1.4167  0.4830 -0.7127
   48DOPC  C215 6565   5.975   2.408   3.939  0.9539  0.7603 -0.3168
   48DOPC  H15R 6566   5.874   2.362   3.933  1.2526  0.2559 -1.8063
   48DOPC  H15S 6567   6.053   2.330   3.925 -0.4565 -0.7127 -0.1712
   48DOPC  C216 6568   5.988   2.521   3.840  0.1477 -0.0377 -0.2390
   48DOPC  H16R 6569   5.991   2.484   3.735  0.5410 -1.0611  0.1199
   48DOPC  H16S 6570   6.078   2.580   3.868 -0.9581  1.1669  0.8802
   48DOPC  C217 6571   5.873   2.626   3.842 -0.8144  0.0112 -0.0178
   48DOPC  H17R 6572   5.872   2.665   3.946  1.0084 -1.2103  0.5078
   48DOPC  H17S 6573   5.775   2.575   3.831  0.3411 -2.6385  1.0626
   48DOPC  C218 6574   5.891   2.756   3.752  0.0060  0.1240 -0.8214
   48DOPC  H18R 6575   5.798   2.816   3.757 -0.3448 -0.4987  0.9803
   48DOPC  H18S 6576   5.901   2.732   3.644 -2.0255  1.1559 -1.2936
   48DOPC  H18T 6577   5.975   2.822   3.782  0.4487 -1.0511  0.6372
   48DOPC   C33 6578   5.520   3.507   4.757 -0.1162 -0.3142 -0.2163
   48DOPC   H3X 6579   5.456   3.561   4.830  0.0818 -0.3728  0.0001
   48DOPC   H3Y 6580   5.491   3.400   4.758  1.4800 -0.7853  1.8671
   48DOPC   C34 6581   5.494   3.573   4.614 -0.1281 -0.4749 -0.0429
   48DOPC   H4X 6582   5.396   3.542   4.572 -0.1972  1.7135 -1.6513
   48DOPC   H4Y 6583   5.563   3.529   4.539 -1.6681 -1.5720 -0.8601
   48DOPC   C35 6584   5.519   3.718   4.619 -0.9102 -0.2255 -0.2218
   48DOPC   H5X 6585   5.623   3.727   4.659 -0.6006 -0.8188 -0.8579
   48DOPC   H5Y 6586   5.456   3.773   4.692 -0.7665  0.5176 -0.6549
   48DOPC   C36 6587   5.528   3.789   4.477 -0.1114  0.3782 -0.2571
   48DOPC   H6X 6588   5.618   3.748   4.426  0.2936  1.1520 -0.1824
   48DOPC   H6Y 6589   5.432   3.770   4.424  0.5391  1.1935 -1.8071
   48DOPC   C37 6590   5.543   3.939   4.491 -0.2357 -0.3024  0.5157
   48DOPC   H7X 6591   5.452   3.980   4.540 -0.9045 -0.8548 -0.2373
   48DOPC   H7Y 6592   5.630   3.955   4.559  0.1260 -0.9901  0.2156
   48DOPC   C38 6593   5.559   4.006   4.352  0.2159  0.7494 -0.2598
   48DOPC   H8X 6594   5.459   3.998   4.305  1.0421 -0.7050 -1.9000
   48DOPC   H8Y 6595   5.627   3.940   4.293  0.2313  1.4177 -1.0093
   48DOPC   C39 6596   5.591   4.148   4.363 -0.3627  0.0111  0.6050
   48DOPC   H9X 6597   5.686   4.171   4.415  0.7352  1.2427 -1.8174
   48DOPC  C310 6598   5.499   4.244   4.363 -0.1063  0.1178 -0.1598
   48DOPC  H10X 6599   5.531   4.338   4.411  2.0085 -0.7400  0.2471
   48DOPC  C311 6600   5.356   4.254   4.332  0.9275 -0.2452  0.0498
   48DOPC  H11X 6601   5.304   4.247   4.429  0.6408 -1.5649 -0.1759
   48DOPC  H11Y 6602   5.319   4.174   4.264  1.0564  0.6763 -1.1442
   48DOPC  C312 6603   5.321   4.387   4.261 -0.3410 -0.4805 -0.5343
   48DOPC  H12X 6604   5.389   4.412   4.177  1.2442 -0.6110  0.6652
   48DOPC  H12Y 6605   5.338   4.465   4.339  0.6992 -0.9112 -0.3161
   48DOPC  C313 6606   5.173   4.389   4.207 -0.6344  0.5544 -0.1830
   48DOPC  H13X 6607   5.099   4.344   4.276  0.6270  0.4127  1.1338
   48DOPC  H13Y 6608   5.147   4.497   4.199 -0.3187  0.6560  0.1423
   48DOPC  C314 6609   5.168   4.325   4.065 -0.4274 -0.5585 -0.5166
   48DOPC  H14X 6610   5.228   4.397   4.005  0.6501  0.3047  1.5377
   48DOPC  H14Y 6611   5.217   4.225   4.066  0.1450 -0.2919 -1.0442
   48DOPC  C315 6612   5.025   4.319   4.019  0.1194 -0.3211  0.2893
   48DOPC  H15X 6613   4.962   4.262   4.091 -0.5658 -1.8071 -1.4109
   48DOPC  H15Y 6614   5.021   4.254   3.929 -0.2960 -2.1396  1.5731
   48DOPC  C316 6615   4.949   4.448   3.991  0.2776 -0.2414 -0.1725
   48DOPC  H16X 6616   4.880   4.471   4.075  1.0391 -0.3640  0.4985
   48DOPC  H16Y 6617   5.013   4.539   3.995 -0.0218 -0.0796  2.2977
   48DOPC  C317 6618   4.882   4.448   3.854  0.3128  0.0540  0.2338
   48DOPC  H17X 6619   4.852   4.552   3.828  2.0584  0.5374  0.0305
   48DOPC  H17Y 6620   4.958   4.416   3.779  1.6051  3.3530 -0.0596
   48DOPC  C318 6621   4.761   4.354   3.854  0.0777  0.0247 -0.2174
   48DOPC  H18X 6622   4.787   4.248   3.875  1.0488  0.7328  2.5260
   48DOPC  H18Y 6623   4.701   4.393   3.938  1.9274  3.1182 -0.1796
   48DOPC  H18Z 6624   4.695   4.364   3.764  1.1646  0.6389 -0.9737
   49DOPC     N 6625   4.793   5.985   5.975 -0.2703  0.7732 -0.1386
   49DOPC   C12 6626   4.902   5.957   5.871  0.2289 -0.2070 -0.6363
   49DOPC  H12A 6627   4.860   5.940   5.773  0.3364 -2.1434 -0.3753
   49DOPC  H12B 6628   4.953   5.866   5.898  0.7260  0.9370  2.8772
   49DOPC   C13 6629   4.702   5.871   5.961  0.2181 -0.8138 -0.5625
   49DOPC  H13A 6630   4.623   5.868   6.035  0.1240 -0.9934 -0.6703
   49DOPC  H13B 6631   4.650   5.874   5.867  0.5605  1.7021 -0.7171
   49DOPC  H13C 6632   4.759   5.779   5.972  0.3712 -0.7908 -1.1533
   49DOPC   C14 6633   4.716   6.119   5.953  0.6110 -0.2663 -0.1040
   49DOPC  H14A 6634   4.642   6.127   6.032  1.0711  1.0905  0.2134
   49DOPC  H14B 6635   4.779   6.205   5.965  0.4016 -0.3161  1.7119
   49DOPC  H14C 6636   4.668   6.118   5.856  0.6771 -1.1739 -0.1363
   49DOPC   C15 6637   4.848   5.986   6.113 -0.1923  0.3309  0.2424
   49DOPC  H15A 6638   4.907   5.899   6.134 -1.8007 -0.0722  3.8733
   49DOPC  H15B 6639   4.780   6.001   6.196 -2.0696  0.0757 -1.1702
   49DOPC  H15C 6640   4.920   6.066   6.118  0.2399 -0.0546  0.1601
   49DOPC   C11 6641   5.008   6.072   5.855 -0.0656  0.4577  0.3742
   49DOPC  H11A 6642   4.957   6.166   5.826  1.0115  0.1301 -2.9813
   49DOPC  H11B 6643   5.066   6.086   5.949  2.8229 -1.2675 -1.0228
   49DOPC     P 6644   5.197   5.927   5.734 -0.1144 -0.3587 -0.0580
   49DOPC   O13 6645   5.235   5.884   5.875  0.3833  0.0981 -0.0857
   49DOPC   O14 6646   5.310   5.970   5.652 -0.0884 -0.3666  0.0520
   49DOPC   O12 6647   5.100   6.057   5.750  0.4876 -0.4962  0.0049
   49DOPC   O11 6648   5.111   5.819   5.659 -0.6463  0.0187 -0.2745
   49DOPC    C1 6649   4.995   5.850   5.586  0.3632 -0.2416 -0.3126
   49DOPC    HA 6650   5.000   5.951   5.541 -3.0476  0.1591 -0.0971
   49DOPC    HB 6651   4.900   5.846   5.645 -1.5141 -0.4702 -3.1300
   49DOPC    C2 6652   4.981   5.746   5.472 -0.0871 -0.1107  0.2156
   49DOPC    HS 6653   5.004   5.649   5.521  0.5516  0.5753  1.2916
   49DOPC   O21 6654   5.074   5.774   5.363 -0.2556 -0.6371  0.0807
   49DOPC   C21 6655   5.086   5.669   5.282 -0.2523 -0.6557 -0.1193
   49DOPC   O22 6656   5.046   5.558   5.295  0.0595 -0.1999 -0.2545
   49DOPC   C22 6657   5.162   5.718   5.152  0.0763  0.4794 -0.2120
   49DOPC   H2R 6658   5.269   5.730   5.178  0.2752 -0.0203 -0.7698
   49DOPC   H2S 6659   5.115   5.813   5.119  0.0611  0.5621  0.0414
   49DOPC    C3 6660   4.835   5.746   5.420  0.0929 -0.0864 -0.2543
   49DOPC    HX 6661   4.759   5.727   5.498 -0.7212  1.4437 -0.6457
   49DOPC    HY 6662   4.826   5.670   5.339  0.1766 -0.0459 -0.3007
   49DOPC   O31 6663   4.813   5.874   5.365 -0.1192  0.4375  0.2112
   49DOPC   C31 6664   4.832   5.886   5.229  0.4505  0.0039  0.4269
   49DOPC   O32 6665   4.854   5.796   5.155 -0.5238 -0.1300 -0.4332
   49DOPC   C32 6666   4.806   6.032   5.189 -0.1294  0.6141 -0.2431
   49DOPC   H2X 6667   4.713   6.070   5.235 -0.5140  1.3791 -1.6184
   49DOPC   H2Y 6668   4.894   6.088   5.229 -0.9111  0.2956  2.0720
   49DOPC   C23 6669   5.152   5.614   5.045  0.4058 -0.0046  0.6952
   49DOPC   H3R 6670   5.050   5.572   5.044 -0.5213  2.0398 -1.5650
   49DOPC   H3S 6671   5.229   5.535   5.050 -1.8206 -2.2554  1.0968
   49DOPC   C24 6672   5.174   5.690   4.910  0.5225  0.0463  0.5400
   49DOPC   H4R 6673   5.261   5.759   4.917  1.9412 -1.6190  0.0593
   49DOPC   H4S 6674   5.083   5.742   4.873  0.1468 -1.6055 -1.0280
   49DOPC   C25 6675   5.211   5.592   4.799 -0.4881 -0.5493 -0.1165
   49DOPC   H5R 6676   5.115   5.552   4.759 -0.6344  0.4777 -0.8451
   49DOPC   H5S 6677   5.275   5.510   4.838  2.3412  0.6475 -1.8750
   49DOPC   C26 6678   5.296   5.656   4.677  0.2764  0.0874 -0.3557
   49DOPC   H6R 6679   5.385   5.701   4.725 -1.8594  1.9776  2.1816
   49DOPC   H6S 6680   5.237   5.733   4.622  0.0888 -0.6526 -1.2096
   49DOPC   C27 6681   5.336   5.544   4.580  0.3486  0.1871 -0.0436
   49DOPC   H7R 6682   5.394   5.465   4.633  0.4485 -0.0225 -0.4612
   49DOPC   H7S 6683   5.396   5.583   4.495  0.9694 -1.7396 -0.5366
   49DOPC   C28 6684   5.214   5.478   4.513 -0.3695 -0.2475 -0.1733
   49DOPC   H8R 6685   5.154   5.554   4.460 -0.5461 -1.2696 -1.4940
   49DOPC   H8S 6686   5.138   5.435   4.581 -0.6273  1.1394  0.4433
   49DOPC   C29 6687   5.261   5.378   4.410 -0.7498  0.0462  0.3143
   49DOPC   H9R 6688   5.350   5.319   4.437 -2.4673 -1.9865  1.8661
   49DOPC  C210 6689   5.207   5.369   4.283 -0.0447  0.0669 -0.1175
   49DOPC  H10R 6690   5.253   5.302   4.209  1.0284  0.6184  0.0248
   49DOPC  C211 6691   5.079   5.440   4.236 -0.6494 -1.0656  0.5676
   49DOPC  H11R 6692   5.033   5.492   4.322  0.6440 -0.1000  0.7063
   49DOPC  H11S 6693   5.009   5.368   4.189 -0.0186 -0.6783 -1.0613
   49DOPC  C212 6694   5.114   5.544   4.122 -0.0484  0.5951 -0.1593
   49DOPC  H12R 6695   5.198   5.609   4.156  1.4442 -0.8527 -0.9434
   49DOPC  H12S 6696   5.026   5.610   4.106 -0.3311 -0.2363 -2.3732
   49DOPC  C213 6697   5.137   5.477   3.987 -0.0782  0.0947  0.8295
   49DOPC  H13R 6698   5.058   5.399   3.978 -0.9748  1.2481 -3.2085
   49DOPC  H13S 6699   5.237   5.428   3.993  0.3260  0.6200 -0.9602
   49DOPC  C214 6700   5.130   5.558   3.862  0.5038  0.3993  0.2974
   49DOPC  H14R 6701   5.214   5.630   3.858  0.8237  0.1449  1.7283
   49DOPC  H14S 6702   5.036   5.617   3.856 -0.2776 -0.7635  0.6763
   49DOPC  C215 6703   5.143   5.479   3.732  0.4504  0.1720 -0.4815
   49DOPC  H15R 6704   5.096   5.379   3.743 -1.3800  1.0138 -0.2820
   49DOPC  H15S 6705   5.246   5.470   3.694 -0.4793  0.0144 -3.1617
   49DOPC  C216 6706   5.072   5.544   3.616 -0.3053 -0.4670  0.1340
   49DOPC  H16R 6707   5.135   5.630   3.585 -0.0370 -0.6787  0.0856
   49DOPC  H16S 6708   4.974   5.587   3.647 -0.2617  0.0752 -0.4698
   49DOPC  C217 6709   5.065   5.460   3.479 -0.1636 -0.1150 -0.1767
   49DOPC  H17R 6710   5.001   5.516   3.408 -0.2015 -0.5976 -0.5271
   49DOPC  H17S 6711   5.003   5.369   3.491 -0.2662 -0.1066 -0.6332
   49DOPC  C218 6712   5.203   5.421   3.423  0.5175 -0.9677  0.2679
   49DOPC  H18R 6713   5.259   5.514   3.402  0.0240 -0.5393  0.8232
   49DOPC  H18S 6714   5.207   5.366   3.326 -0.1949  1.1799 -1.0559
   49DOPC  H18T 6715   5.264   5.373   3.502  0.7998 -1.2094 -0.0902
   49DOPC   C33 6716   4.797   6.058   5.030  0.2448  0.0067  0.3727
   49DOPC   H3X 6717   4.759   6.162   5.040 -2.7187 -1.0805  1.4278
   49DOPC   H3Y 6718   4.711   6.001   4.990 -1.3139  2.6667 -0.3059
   49DOPC   C34 6719   4.923   6.042   4.947  0.5866  0.1965 -0.2104
   49DOPC   H4X 6720   4.913   6.078   4.842 -0.7047 -0.5663 -0.3839
   49DOPC   H4Y 6721   4.949   5.934   4.949 -0.2975 -0.0217 -0.1637
   49DOPC   C35 6722   5.039   6.123   4.998  0.0947  0.6660 -0.2555
   49DOPC   H5X 6723   5.049   6.112   5.108 -0.7101  0.3757 -0.2063
   49DOPC   H5Y 6724   5.021   6.229   4.972 -4.0651 -0.1193 -1.3589
   49DOPC   C36 6725   5.171   6.087   4.922  0.4277 -0.3334  0.0972
   49DOPC   H6X 6726   5.243   6.163   4.960 -1.8711  2.1449 -0.2461
   49DOPC   H6Y 6727   5.201   5.986   4.956  0.4357 -0.5670 -0.5738
   49DOPC   C37 6728   5.163   6.096   4.766 -0.5448 -0.4013 -0.5706
   49DOPC   H7X 6729   5.126   5.995   4.738 -0.4210 -0.4789 -0.4556
   49DOPC   H7Y 6730   5.094   6.179   4.740 -1.7871 -0.8808  1.0145
   49DOPC   C38 6731   5.302   6.126   4.697  0.9884 -0.6774  0.0566
   49DOPC   H8X 6732   5.340   6.224   4.734  2.3325  0.1993 -3.3010
   49DOPC   H8Y 6733   5.288   6.147   4.589  1.4801  1.7367  0.4028
   49DOPC   C39 6734   5.412   6.022   4.707  0.5386  0.1747  0.1386
   49DOPC   H9X 6735   5.381   5.919   4.730  1.1264 -0.1837 -0.6519
   49DOPC  C310 6736   5.545   6.033   4.697  0.2087 -0.2532 -0.5203
   49DOPC  H10X 6737   5.603   5.947   4.732  0.1307  0.3318  1.1542
   49DOPC  C311 6738   5.631   6.160   4.690  0.2825 -0.8158 -0.0875
   49DOPC  H11X 6739   5.696   6.148   4.779 -0.6067 -1.7143  0.4636
   49DOPC  H11Y 6740   5.567   6.249   4.707  2.6571  1.1523 -0.8373
   49DOPC  C312 6741   5.724   6.164   4.564 -0.3553  0.1290 -0.0036
   49DOPC  H12X 6742   5.776   6.066   4.559  1.0674  0.8978 -1.1943
   49DOPC  H12Y 6743   5.804   6.236   4.592 -0.6786 -0.0249  1.3766
   49DOPC  C313 6744   5.658   6.214   4.443  1.0418 -0.1176  0.6679
   49DOPC  H13X 6745   5.732   6.201   4.362  0.8535  2.1240  0.0778
   49DOPC  H13Y 6746   5.574   6.145   4.417  1.9911 -1.6138  1.4172
   49DOPC  C314 6747   5.626   6.362   4.440  0.1189  0.6608  0.2764
   49DOPC  H14X 6748   5.577   6.377   4.539  0.2485 -1.2126  0.6644
   49DOPC  H14Y 6749   5.725   6.406   4.467 -0.1799  2.6025 -1.5175
   49DOPC  C315 6750   5.573   6.421   4.305 -0.0593  0.3366  0.0634
   49DOPC  H15X 6751   5.655   6.409   4.232  0.9238  1.0764  1.0123
   49DOPC  H15Y 6752   5.559   6.530   4.318 -0.8034  0.0061  2.6311
   49DOPC  C316 6753   5.452   6.350   4.239 -0.4680 -0.0818  0.2604
   49DOPC  H16X 6754   5.436   6.392   4.137 -1.2252  0.6354  0.6649
   49DOPC  H16Y 6755   5.487   6.246   4.222  3.4066  1.3828 -2.0518
   49DOPC  C317 6756   5.321   6.361   4.321  0.5202  0.2026  0.4045
   49DOPC  H17X 6757   5.348   6.338   4.427 -2.0442  0.7351  1.2485
   49DOPC  H17Y 6758   5.284   6.466   4.322 -0.2302 -0.0253 -1.0232
   49DOPC  C318 6759   5.206   6.268   4.287 -0.0688 -0.6062 -0.1772
   49DOPC  H18X 6760   5.175   6.269   4.180  0.4037  2.3453 -0.3635
   49DOPC  H18Y 6761   5.231   6.165   4.322  0.7418 -0.8784 -1.4675
   49DOPC  H18Z 6762   5.117   6.304   4.341  0.3023  0.9829 -0.5608
   50DOPC     N 6763   6.717   4.719   5.488 -0.0805 -0.0997 -0.1629
   50DOPC   C12 6764   6.609   4.622   5.441  0.0259 -0.1897  0.2120
   50DOPC  H12A 6765   6.601   4.542   5.514  0.3683  0.9334  1.5400
   50DOPC  H12B 6766   6.644   4.574   5.352  0.6717 -0.9275  0.8471
   50DOPC   C13 6767   6.759   4.829   5.391 -0.0358  0.1276  0.6516
   50DOPC  H13A 6768   6.838   4.794   5.326 -0.4320  0.0663  0.1997
   50DOPC  H13B 6769   6.680   4.869   5.329  2.0533 -0.0192 -2.3377
   50DOPC  H13C 6770   6.809   4.914   5.437  1.1404  1.1488 -2.2729
   50DOPC   C14 6771   6.840   4.631   5.519  0.4453  0.1783 -0.1176
   50DOPC  H14A 6772   6.851   4.568   5.432  1.0257  0.4133 -0.2229
   50DOPC  H14B 6773   6.925   4.698   5.524  0.1609  0.5826 -0.5715
   50DOPC  H14C 6774   6.833   4.557   5.597  0.6288  0.7101  0.4102
   50DOPC   C15 6775   6.678   4.790   5.617 -0.4896  0.3887  0.3781
   50DOPC  H15A 6776   6.670   4.719   5.698 -2.3995  0.5093  0.3399
   50DOPC  H15B 6777   6.586   4.847   5.607 -1.4704 -1.4683 -2.7790
   50DOPC  H15C 6778   6.760   4.855   5.643  0.6798 -0.9532  0.1629
   50DOPC   C11 6779   6.477   4.693   5.418  1.0563 -0.0696 -0.3470
   50DOPC  H11A 6780   6.410   4.609   5.389 -0.2823  1.0771 -0.7388
   50DOPC  H11B 6781   6.447   4.747   5.511  0.0979 -0.3410 -0.4832
   50DOPC     P 6782   6.404   4.919   5.302 -0.5722 -0.0973  0.0536
   50DOPC   O13 6783   6.470   5.050   5.311  0.0877 -1.0322  0.5065
   50DOPC   O14 6784   6.282   4.900   5.383  0.4601  0.4418  0.0173
   50DOPC   O12 6785   6.495   4.790   5.305  0.3295  0.3984  0.3860
   50DOPC   O11 6786   6.366   4.903   5.148 -0.3926 -0.0912 -0.0745
   50DOPC    C1 6787   6.309   4.782   5.098  0.2559 -0.5054  0.5605
   50DOPC    HA 6788   6.199   4.788   5.107 -0.0616  1.5106 -2.7920
   50DOPC    HB 6789   6.346   4.690   5.148 -0.6601 -0.5738  1.1188
   50DOPC    C2 6790   6.323   4.769   4.940 -0.0834 -0.3797  0.3302
   50DOPC    HS 6791   6.254   4.687   4.910  0.1676 -1.0204  1.4479
   50DOPC   O21 6792   6.462   4.745   4.911 -0.1828 -0.0631 -0.0310
   50DOPC   C21 6793   6.475   4.648   4.818 -0.2177 -0.2796  0.3334
   50DOPC   O22 6794   6.383   4.584   4.768 -0.3235  0.4974  0.2209
   50DOPC   C22 6795   6.624   4.629   4.791 -0.4270 -0.0130 -0.4135
   50DOPC   H2R 6796   6.648   4.521   4.803  1.0467  0.3436  0.0900
   50DOPC   H2S 6797   6.692   4.684   4.860  0.0480 -0.9311 -0.1303
   50DOPC    C3 6798   6.276   4.897   4.862  0.0854 -0.0861  0.7176
   50DOPC    HX 6799   6.335   4.986   4.893 -1.6611  2.1385 -1.8733
   50DOPC    HY 6800   6.173   4.928   4.891  0.6498  1.9664  0.6954
   50DOPC   O31 6801   6.296   4.884   4.726 -0.1261 -0.2986 -0.5997
   50DOPC   C31 6802   6.194   4.860   4.649 -0.7896 -0.1469 -0.8996
   50DOPC   O32 6803   6.077   4.861   4.687  0.1817  0.0195 -0.7968
   50DOPC   C32 6804   6.249   4.838   4.508 -0.6533 -0.4526 -0.2483
   50DOPC   H2X 6805   6.340   4.901   4.494 -0.0373 -1.4321 -0.8021
   50DOPC   H2Y 6806   6.276   4.731   4.500 -3.4730 -1.2075 -0.5200
   50DOPC   C23 6807   6.665   4.665   4.646 -0.0739  0.7431  0.5254
   50DOPC   H3R 6808   6.615   4.617   4.560  2.3705  3.7223 -2.8835
   50DOPC   H3S 6809   6.768   4.626   4.633 -0.2906 -0.4660  2.1374
   50DOPC   C24 6810   6.663   4.807   4.616 -0.0222  0.5383  0.2655
   50DOPC   H4R 6811   6.734   4.862   4.682 -0.7031  2.6653 -0.6854
   50DOPC   H4S 6812   6.557   4.839   4.612 -0.4373 -0.8077  0.2197
   50DOPC   C25 6813   6.714   4.845   4.465  0.3254 -0.4608 -0.9843
   50DOPC   H5R 6814   6.638   4.808   4.393 -1.6631  3.5972 -1.2792
   50DOPC   H5S 6815   6.805   4.784   4.449 -0.3001 -1.5810 -0.4284
   50DOPC   C26 6816   6.764   4.987   4.446  0.1740  0.0862 -0.0989
   50DOPC   H6R 6817   6.684   5.059   4.475  0.5099  0.0097  1.0734
   50DOPC   H6S 6818   6.787   5.007   4.340 -0.3142 -0.6869 -0.3525
   50DOPC   C27 6819   6.878   5.025   4.535  0.1474  0.1668 -0.1241
   50DOPC   H7R 6820   6.946   4.937   4.548 -0.5973 -0.7374 -2.0177
   50DOPC   H7S 6821   6.845   5.056   4.637  0.8582  0.2040  0.1030
   50DOPC   C28 6822   6.955   5.160   4.501 -0.2602  0.4515  0.5645
   50DOPC   H8R 6823   7.013   5.135   4.410  0.4450 -1.3424  1.4556
   50DOPC   H8S 6824   7.033   5.200   4.568  2.8362  2.1816 -3.6423
   50DOPC   C29 6825   6.865   5.269   4.475  0.1848 -0.0930  0.0539
   50DOPC   H9R 6826   6.774   5.276   4.537 -0.6873 -0.0633 -1.1917
   50DOPC  C210 6827   6.891   5.385   4.410  0.3264  0.2936  0.7582
   50DOPC  H10R 6828   6.809   5.459   4.400 -0.8113 -0.9934  0.1764
   50DOPC  C211 6829   7.019   5.429   4.337  0.1624  0.5996  0.7629
   50DOPC  H11R 6830   7.007   5.402   4.230  0.5731  4.3351 -0.3820
   50DOPC  H11S 6831   7.106   5.376   4.381  0.3526  0.1519 -0.1268
   50DOPC  C212 6832   7.054   5.576   4.318  0.3151 -0.2719  0.0870
   50DOPC  H12R 6833   7.158   5.595   4.283  0.2333  1.3009  0.6267
   50DOPC  H12S 6834   7.045   5.630   4.414 -1.6056  0.4896 -0.4777
   50DOPC  C213 6835   6.964   5.649   4.217  0.1763 -0.2978 -0.8302
   50DOPC  H13R 6836   6.861   5.611   4.234  0.7583 -1.5005  0.1961
   50DOPC  H13S 6837   7.003   5.608   4.121  2.1149  1.5859 -0.9082
   50DOPC  C214 6838   6.951   5.804   4.222 -0.3208  0.3877 -0.3117
   50DOPC  H14R 6839   7.056   5.840   4.233 -0.8286  1.6793  0.5424
   50DOPC  H14S 6840   6.904   5.842   4.315 -0.8664 -2.3838  0.6401
   50DOPC  C215 6841   6.881   5.862   4.098  0.4289  0.4161 -0.1148
   50DOPC  H15R 6842   6.912   5.811   4.005 -0.9868 -0.1524 -0.3023
   50DOPC  H15S 6843   6.901   5.971   4.100 -0.2252  0.6806 -3.4723
   50DOPC  C216 6844   6.729   5.873   4.103 -0.1775  0.1622 -0.2294
   50DOPC  H16R 6845   6.701   5.921   4.200 -0.2868 -1.3428  0.5225
   50DOPC  H16S 6846   6.678   5.774   4.104 -2.1966  1.0540 -3.2545
   50DOPC  C217 6847   6.687   5.959   3.987 -0.3624  0.1079 -0.3912
   50DOPC  H17R 6848   6.724   5.922   3.890 -1.6176 -3.2194  0.2753
   50DOPC  H17S 6849   6.731   6.059   4.008 -0.5505 -0.1803  1.5764
   50DOPC  C218 6850   6.531   5.977   3.975  0.2413 -0.3007 -0.5692
   50DOPC  H18R 6851   6.488   5.904   3.903  0.8924 -1.0140 -0.2416
   50DOPC  H18S 6852   6.510   6.080   3.938  0.7944  0.1675  0.3737
   50DOPC  H18T 6853   6.479   5.978   4.073  0.8824  2.5346 -0.1659
   50DOPC   C33 6854   6.148   4.885   4.395  0.6913 -0.3081 -0.0995
   50DOPC   H3X 6855   6.117   4.990   4.414  2.2175  0.1160  0.1200
   50DOPC   H3Y 6856   6.057   4.822   4.384 -0.1301  0.6379  0.9888
   50DOPC   C34 6857   6.218   4.881   4.254  0.1301  0.6723  0.1126
   50DOPC   H4X 6858   6.319   4.911   4.288 -0.3144  2.0300  0.2923
   50DOPC   H4Y 6859   6.167   4.935   4.171 -0.8665 -1.4775 -0.7465
   50DOPC   C35 6860   6.229   4.737   4.203  0.3285 -0.6110 -0.0909
   50DOPC   H5X 6861   6.130   4.694   4.178  0.6052 -1.4121  0.1795
   50DOPC   H5Y 6862   6.273   4.668   4.278 -1.9929 -1.4918  0.5396
   50DOPC   C36 6863   6.320   4.715   4.081 -0.4879 -0.3288 -0.2863
   50DOPC   H6X 6864   6.286   4.794   4.011 -1.5505 -0.2945  0.2595
   50DOPC   H6Y 6865   6.428   4.735   4.102 -0.4427 -0.4111 -0.4388
   50DOPC   C37 6866   6.324   4.567   4.034 -0.2225 -0.4960  0.7834
   50DOPC   H7X 6867   6.411   4.523   4.087  1.1095 -0.7627 -1.4682
   50DOPC   H7Y 6868   6.235   4.502   4.037 -0.1643 -0.9094 -2.5597
   50DOPC   C38 6869   6.364   4.565   3.885 -0.3385 -0.0835  0.4956
   50DOPC   H8X 6870   6.461   4.619   3.878 -0.7016  0.5561  0.3260
   50DOPC   H8Y 6871   6.285   4.623   3.835 -0.8536 -1.7487 -0.7130
   50DOPC   C39 6872   6.386   4.425   3.829 -0.0816  0.3492  0.5358
   50DOPC   H9X 6873   6.339   4.338   3.875  3.8753 -1.8656  0.8556
   50DOPC  C310 6874   6.470   4.394   3.728 -0.2642  0.3144 -0.5763
   50DOPC  H10X 6875   6.474   4.288   3.698 -0.4998  0.2334 -0.3288
   50DOPC  C311 6876   6.569   4.479   3.649  0.6558 -0.2885 -0.4853
   50DOPC  H11X 6877   6.666   4.425   3.642  0.6089 -0.4139 -0.1932
   50DOPC  H11Y 6878   6.589   4.568   3.712 -0.5407 -0.2961 -0.0568
   50DOPC  C312 6879   6.529   4.501   3.502  0.3063 -0.3351 -0.8148
   50DOPC  H12X 6880   6.491   4.409   3.453  0.3702 -2.5059  2.8990
   50DOPC  H12Y 6881   6.614   4.541   3.442  1.6706 -2.3517 -0.3419
   50DOPC  C313 6882   6.415   4.605   3.496 -0.0657  0.5739 -0.7404
   50DOPC  H13X 6883   6.326   4.561   3.545 -0.6949  1.0840 -1.3969
   50DOPC  H13Y 6884   6.440   4.700   3.547  0.0843 -1.0516  2.4569
   50DOPC  C314 6885   6.371   4.641   3.353  0.9505 -0.2344 -0.1614
   50DOPC  H14X 6886   6.444   4.708   3.303  0.2521 -0.4378 -1.4964
   50DOPC  H14Y 6887   6.374   4.548   3.291  0.1891  0.6346 -1.5354
   50DOPC  C315 6888   6.230   4.701   3.346  0.1810 -0.0585  1.5152
   50DOPC  H15X 6889   6.233   4.802   3.391  0.7779  0.5712  0.1335
   50DOPC  H15Y 6890   6.162   4.632   3.400 -1.3238 -1.1117 -1.4997
   50DOPC  C316 6891   6.180   4.705   3.196  0.1060 -0.2316 -0.5891
   50DOPC  H16X 6892   6.236   4.782   3.138  0.6624 -1.1575 -1.2954
   50DOPC  H16Y 6893   6.197   4.605   3.151 -3.0495 -0.8572 -0.6063
   50DOPC  C317 6894   6.030   4.732   3.202 -0.9094 -0.4835 -0.3412
   50DOPC  H17X 6895   5.987   4.642   3.251  1.5861  0.3088  3.7587
   50DOPC  H17Y 6896   6.009   4.830   3.250  2.8347  0.8433 -1.0447
   50DOPC  C318 6897   5.982   4.748   3.058  0.0429  0.2889  0.4714
   50DOPC  H18X 6898   5.872   4.762   3.049 -0.0013 -0.5570 -0.4643
   50DOPC  H18Y 6899   6.036   4.835   3.014 -2.5879  0.4938 -2.7435
   50DOPC  H18Z 6900   6.011   4.653   3.008  3.9044  0.9297  1.2013
   51DOPC     N 6901   2.871   7.226   6.077 -0.0419  0.6100  0.2844
   51DOPC   C12 6902   2.770   7.319   6.013 -0.3024 -0.4589 -0.0605
   51DOPC  H12A 6903   2.756   7.399   6.084  2.1825  1.3124 -1.4113
   51DOPC  H12B 6904   2.677   7.265   6.011 -0.8355  0.4539 -1.1483
   51DOPC   C13 6905   2.823   7.175   6.208  0.4344 -0.5778  0.6655
   51DOPC  H13A 6906   2.836   7.237   6.296  0.0391 -2.1412  1.8873
   51DOPC  H13B 6907   2.724   7.133   6.202  0.7085 -1.0175 -1.5859
   51DOPC  H13C 6908   2.877   7.087   6.241 -1.0533 -1.4647  0.8342
   51DOPC   C14 6909   2.982   7.319   6.110 -0.1858 -0.9061  0.7655
   51DOPC  H14A 6910   2.960   7.418   6.072  0.2397 -1.0470  0.1324
   51DOPC  H14B 6911   2.995   7.323   6.217  2.0236 -0.1592  0.5196
   51DOPC  H14C 6912   3.077   7.292   6.066  0.6725 -1.5990  2.9341
   51DOPC   C15 6913   2.931   7.117   5.999 -0.3984 -0.4725  0.6731
   51DOPC  H15A 6914   2.875   7.026   6.007 -2.9006  1.0937  2.2308
   51DOPC  H15B 6915   3.033   7.100   6.031 -1.0481 -0.7252  2.8024
   51DOPC  H15C 6916   2.929   7.150   5.896 -3.0219  0.0721  0.8437
   51DOPC   C11 6917   2.793   7.380   5.873 -0.1866 -0.4513  0.3097
   51DOPC  H11A 6918   2.803   7.302   5.795 -1.2328  0.9974 -1.3504
   51DOPC  H11B 6919   2.702   7.440   5.852 -0.1184  0.3359  2.0522
   51DOPC     P 6920   2.893   7.615   5.823 -0.3751 -0.2351 -0.1647
   51DOPC   O13 6921   3.023   7.683   5.845  0.5662  0.0607  0.3137
   51DOPC   O14 6922   2.786   7.678   5.899 -0.1368 -0.1547  0.2792
   51DOPC   O12 6923   2.907   7.467   5.873  0.1189  0.2221 -0.0537
   51DOPC   O11 6924   2.859   7.610   5.670  0.7583 -0.5487 -0.4957
   51DOPC    C1 6925   2.937   7.536   5.572  0.0390 -0.4081  0.5576
   51DOPC    HA 6926   2.873   7.495   5.491 -0.2725 -0.5015  0.8456
   51DOPC    HB 6927   2.992   7.454   5.623  1.3145  0.1266  0.0734
   51DOPC    C2 6928   3.048   7.625   5.497 -0.6536 -0.5167  0.9715
   51DOPC    HS 6929   3.106   7.662   5.584  1.1010 -0.7170 -0.0667
   51DOPC   O21 6930   2.979   7.725   5.414 -0.1899 -0.0067 -0.0830
   51DOPC   C21 6931   3.025   7.849   5.423 -0.2358  0.0133  0.3116
   51DOPC   O22 6932   3.122   7.888   5.492  0.6536  0.6393  0.4650
   51DOPC   C22 6933   2.935   7.942   5.351  0.0717 -0.3508 -0.4792
   51DOPC   H2R 6934   2.905   8.024   5.419 -0.3729 -1.0966  0.2429
   51DOPC   H2S 6935   2.840   7.888   5.332 -0.9456  1.0250  0.5143
   51DOPC    C3 6936   3.150   7.542   5.414 -0.7021  0.4172 -0.0694
   51DOPC    HX 6937   3.107   7.506   5.317  0.9690 -2.3542  0.1042
   51DOPC    HY 6938   3.172   7.451   5.473  2.5525  0.7035 -0.6837
   51DOPC   O31 6939   3.261   7.622   5.386 -0.5196  0.2209 -0.4486
   51DOPC   C31 6940   3.371   7.551   5.340 -0.2314 -0.1089 -0.3115
   51DOPC   O32 6941   3.372   7.434   5.318 -0.0766 -0.0364 -0.1941
   51DOPC   C32 6942   3.487   7.641   5.305 -0.1103  0.1800  0.4038
   51DOPC   H2X 6943   3.569   7.626   5.378  0.1423 -1.4412 -0.1609
   51DOPC   H2Y 6944   3.535   7.600   5.214 -0.3678  0.2863  0.2201
   51DOPC   C23 6945   2.997   7.992   5.220 -0.9253  0.1483  0.1194
   51DOPC   H3R 6946   3.084   7.931   5.187 -0.2567  1.1275  0.0391
   51DOPC   H3S 6947   3.028   8.098   5.228 -1.5066  0.3305 -0.0241
   51DOPC   C24 6948   2.885   7.995   5.119  0.2433 -0.3637 -0.0911
   51DOPC   H4R 6949   2.795   8.034   5.170  1.0026 -1.6827  2.4599
   51DOPC   H4S 6950   2.866   7.888   5.094 -2.2861  0.2426 -1.0092
   51DOPC   C25 6951   2.913   8.063   4.978 -0.3224 -0.3351 -0.2244
   51DOPC   H5R 6952   2.944   8.169   4.989  0.7552 -0.7891  1.4602
   51DOPC   H5S 6953   2.818   8.058   4.920 -0.5034 -1.7446  0.1443
   51DOPC   C26 6954   3.020   7.988   4.887  0.1871  0.1752  0.0653
   51DOPC   H6R 6955   2.989   7.881   4.888  1.7651 -0.3222  1.4515
   51DOPC   H6S 6956   3.121   7.993   4.934  0.3851  3.4206 -0.4706
   51DOPC   C27 6957   3.033   8.027   4.738  0.0285 -0.7432 -0.0968
   51DOPC   H7R 6958   3.115   7.969   4.691  1.8299  1.5434  0.0231
   51DOPC   H7S 6959   3.064   8.134   4.747  0.4359 -0.9147  0.6269
   51DOPC   C28 6960   2.899   8.001   4.666 -0.0944  0.0324  0.3912
   51DOPC   H8R 6961   2.924   8.030   4.562 -3.0928  1.0296 -0.1387
   51DOPC   H8S 6962   2.825   8.074   4.705 -0.4385 -0.7468  1.2355
   51DOPC   C29 6963   2.853   7.859   4.669 -0.1973 -1.1665 -0.2183
   51DOPC   H9R 6964   2.833   7.827   4.773  2.2744  0.0720  0.7102
   51DOPC  C210 6965   2.808   7.787   4.561 -0.5187 -0.9009 -0.6639
   51DOPC  H10R 6966   2.778   7.681   4.571  0.7524 -1.5765 -3.2956
   51DOPC  C211 6967   2.824   7.832   4.421  0.0264  0.2252  0.3762
   51DOPC  H11R 6968   2.932   7.853   4.407 -0.0061  0.1419 -0.0179
   51DOPC  H11S 6969   2.764   7.925   4.403  2.1321  1.9213  1.6762
   51DOPC  C212 6970   2.791   7.733   4.312  0.4642 -0.2749  0.4572
   51DOPC  H12R 6971   2.693   7.686   4.337  2.2364 -2.9838  2.7953
   51DOPC  H12S 6972   2.868   7.657   4.332 -2.1488 -3.2051  0.1283
   51DOPC  C213 6973   2.778   7.789   4.177 -0.6771 -0.1982 -0.7464
   51DOPC  H13R 6974   2.841   7.881   4.177 -1.1352  0.1227 -0.2117
   51DOPC  H13S 6975   2.678   7.837   4.171 -0.0346  1.7757  2.1318
   51DOPC  C214 6976   2.809   7.695   4.071  0.0674 -0.0096 -0.0100
   51DOPC  H14R 6977   2.746   7.604   4.079  1.4179 -1.0381 -0.7374
   51DOPC  H14S 6978   2.909   7.651   4.088 -0.1686  0.1421  1.9779
   51DOPC  C215 6979   2.793   7.746   3.925  0.1096 -0.4287  0.4454
   51DOPC  H15R 6980   2.740   7.843   3.928 -1.9938 -1.5253  0.4014
   51DOPC  H15S 6981   2.725   7.671   3.879  0.6703 -1.3987  1.1635
   51DOPC  C216 6982   2.930   7.766   3.847 -0.2885  0.5255  0.0285
   51DOPC  H16R 6983   2.971   7.665   3.827  1.5650  1.2054  0.2181
   51DOPC  H16S 6984   2.989   7.838   3.908  1.0221 -2.1629  2.1746
   51DOPC  C217 6985   2.909   7.824   3.710 -0.2894  0.2304  0.5674
   51DOPC  H17R 6986   2.864   7.924   3.725 -1.3999  0.2909 -2.3465
   51DOPC  H17S 6987   2.839   7.765   3.647  1.0787 -2.0678  1.0747
   51DOPC  C218 6988   3.044   7.859   3.641 -0.5281 -0.0914  0.0645
   51DOPC  H18R 6989   3.036   7.883   3.533  5.0534 -0.9803 -0.8724
   51DOPC  H18S 6990   3.128   7.786   3.642 -0.1373  0.3400 -0.5248
   51DOPC  H18T 6991   3.088   7.945   3.696 -0.3782  0.6208 -1.1317
   51DOPC   C33 6992   3.455   7.786   5.284  0.3489 -0.1811  0.5426
   51DOPC   H3X 6993   3.552   7.841   5.282  1.1092 -1.4764 -0.5022
   51DOPC   H3Y 6994   3.406   7.815   5.379 -0.6340 -1.2617  0.3820
   51DOPC   C34 6995   3.366   7.826   5.162 -0.0188 -0.6003 -0.5817
   51DOPC   H4X 6996   3.330   7.931   5.169  1.8319 -0.0550  2.3821
   51DOPC   H4Y 6997   3.274   7.764   5.152 -1.9110  2.1279 -1.2180
   51DOPC   C35 6998   3.450   7.797   5.035  0.0129  0.2425 -0.1382
   51DOPC   H5X 6999   3.492   7.694   5.030 -3.1270 -1.0957 -2.1689
   51DOPC   H5Y 7000   3.531   7.873   5.035  1.8679 -1.5854  2.2135
   51DOPC   C36 7001   3.380   7.808   4.904  0.3094 -0.4925 -0.5071
   51DOPC   H6X 7002   3.275   7.774   4.894 -0.2500  0.4443  1.6025
   51DOPC   H6Y 7003   3.376   7.916   4.879  1.9521 -0.4678 -0.8227
   51DOPC   C37 7004   3.450   7.742   4.791  0.4492  0.1973 -0.4520
   51DOPC   H7X 7005   3.559   7.763   4.796  0.3853  0.5087 -0.3177
   51DOPC   H7Y 7006   3.432   7.634   4.810  0.8911  0.3233  0.7673
   51DOPC   C38 7007   3.402   7.792   4.657  0.6706 -0.8774  1.1531
   51DOPC   H8X 7008   3.292   7.806   4.660  0.7265 -0.4710  1.3428
   51DOPC   H8Y 7009   3.408   7.711   4.581 -0.6378 -2.0180  2.2071
   51DOPC   C39 7010   3.463   7.923   4.604 -0.5217  0.2824  0.6214
   51DOPC   H9X 7011   3.566   7.939   4.639 -0.6735 -1.4077  1.9839
   51DOPC  C310 7012   3.412   8.024   4.529 -0.0306  1.0230 -0.5733
   51DOPC  H10X 7013   3.472   8.115   4.513 -0.2661  1.3330  0.2508
   51DOPC  C311 7014   3.271   8.035   4.474  0.5995 -0.1800 -0.1795
   51DOPC  H11X 7015   3.212   8.118   4.520  1.7075  0.8206 -0.5336
   51DOPC  H11Y 7016   3.201   7.953   4.501 -1.9601  2.2334  1.0373
   51DOPC  C312 7017   3.255   8.063   4.320 -1.2692  0.3074  0.2518
   51DOPC  H12X 7018   3.305   8.156   4.284  1.7964 -0.6580  1.6568
   51DOPC  H12Y 7019   3.147   8.076   4.298 -0.8853  0.9057 -1.4674
   51DOPC  C313 7020   3.308   7.939   4.243  0.8910  0.2399  0.3506
   51DOPC  H13X 7021   3.416   7.956   4.221  1.4854 -0.5888  2.4129
   51DOPC  H13Y 7022   3.307   7.844   4.302 -0.9786 -0.8243 -1.2672
   51DOPC  C314 7023   3.224   7.909   4.117  0.0110  0.4226 -0.3334
   51DOPC  H14X 7024   3.248   7.809   4.074 -4.1996 -0.6565 -0.5857
   51DOPC  H14Y 7025   3.118   7.896   4.147 -0.6969  2.3005 -1.8168
   51DOPC  C315 7026   3.212   8.014   4.009 -0.3727  0.1446 -0.2451
   51DOPC  H15X 7027   3.168   8.106   4.054 -1.9196  1.0560 -3.3318
   51DOPC  H15Y 7028   3.142   7.976   3.932 -1.3285 -1.3810  1.3152
   51DOPC  C316 7029   3.344   8.053   3.946  0.3955  0.2520 -0.8658
   51DOPC  H16X 7030   3.389   8.127   4.015  0.6575 -0.1439 -0.6146
   51DOPC  H16Y 7031   3.402   7.959   3.935  0.9295  0.6672 -1.7158
   51DOPC  C317 7032   3.323   8.103   3.808  0.5776  0.4822 -0.1638
   51DOPC  H17X 7033   3.280   8.024   3.742 -2.6009  2.4239 -0.6287
   51DOPC  H17Y 7034   3.254   8.190   3.805 -1.2193 -0.8897 -0.9313
   51DOPC  C318 7035   3.454   8.138   3.739 -0.6622 -0.2792 -0.8761
   51DOPC  H18X 7036   3.499   8.045   3.698  0.6617 -0.9820  1.8880
   51DOPC  H18Y 7037   3.418   8.207   3.660 -2.0715  0.7892  0.6256
   51DOPC  H18Z 7038   3.527   8.175   3.814 -0.1287 -2.9237  0.0078
   52DOPC     N 7039   1.613   4.349   5.700  0.3261 -0.1002 -0.3455
   52DOPC   C12 7040   1.707   4.294   5.598 -0.6222 -0.4659  0.1053
   52DOPC  H12A 7041   1.762   4.218   5.650 -3.1997 -0.6422  2.8530
   52DOPC  H12B 7042   1.775   4.373   5.572 -0.2468 -0.4670  1.0711
   52DOPC   C13 7043   1.541   4.230   5.758  0.2302 -0.0558  0.5892
   52DOPC  H13A 7044   1.499   4.167   5.681  0.9472 -1.8196  1.5784
   52DOPC  H13B 7045   1.609   4.159   5.804  0.1693 -0.1814  0.4842
   52DOPC  H13C 7046   1.465   4.259   5.829 -1.2095 -0.6970 -0.6436
   52DOPC   C14 7047   1.531   4.456   5.642 -0.0552  0.0615  0.0021
   52DOPC  H14A 7048   1.591   4.543   5.621 -1.1855  0.3362 -2.3301
   52DOPC  H14B 7049   1.463   4.436   5.561  2.2039  0.0999 -2.0164
   52DOPC  H14C 7050   1.458   4.493   5.713 -1.4086  2.5331 -2.4710
   52DOPC   C15 7051   1.680   4.422   5.820  0.3440  0.4362  0.3981
   52DOPC  H15A 7052   1.606   4.458   5.891 -0.0973  3.1395 -1.2563
   52DOPC  H15B 7053   1.724   4.513   5.782 -1.4287  1.3629  0.4276
   52DOPC  H15C 7054   1.759   4.368   5.870  0.6858  0.1894 -0.3925
   52DOPC   C11 7055   1.655   4.234   5.467 -0.0598  0.0641  0.6098
   52DOPC  H11A 7056   1.733   4.176   5.413  2.1243 -0.9001  4.4396
   52DOPC  H11B 7057   1.579   4.158   5.496 -0.0290  0.5105  1.9396
   52DOPC     P 7058   1.652   4.445   5.307 -0.0210 -0.1067  0.3881
   52DOPC   O13 7059   1.757   4.518   5.380  0.0997  0.1910 -0.0090
   52DOPC   O14 7060   1.546   4.531   5.244 -0.6243 -0.0272 -0.1419
   52DOPC   O12 7061   1.579   4.332   5.392  0.4784  0.1411 -0.3507
   52DOPC   O11 7062   1.723   4.360   5.193  0.2227 -0.2799  0.1226
   52DOPC    C1 7063   1.655   4.261   5.122  0.3659  0.4331 -0.2178
   52DOPC    HA 7064   1.546   4.282   5.117  0.2204 -0.3379 -0.4112
   52DOPC    HB 7065   1.673   4.163   5.172  2.2642  1.5789  1.4768
   52DOPC    C2 7066   1.698   4.245   4.978 -0.8250  0.4306  0.2018
   52DOPC    HS 7067   1.809   4.251   4.976 -0.6012 -2.2517  0.6845
   52DOPC   O21 7068   1.624   4.341   4.900 -0.2694 -0.2870 -0.1127
   52DOPC   C21 7069   1.684   4.385   4.793 -0.7580 -0.0697 -0.0021
   52DOPC   O22 7070   1.799   4.355   4.757  0.4682 -0.2593 -0.2712
   52DOPC   C22 7071   1.594   4.488   4.721  0.5759  0.0945  0.1243
   52DOPC   H2R 7072   1.650   4.583   4.720 -0.3866  0.6924 -1.6466
   52DOPC   H2S 7073   1.493   4.498   4.767  0.3189  2.8501 -0.9018
   52DOPC    C3 7074   1.668   4.103   4.918  0.0122 -1.0958 -0.2347
   52DOPC    HX 7075   1.559   4.109   4.895  0.4813  0.4323 -2.3740
   52DOPC    HY 7076   1.690   4.022   4.991  1.4719 -1.0594 -0.6043
   52DOPC   O31 7077   1.754   4.064   4.806 -0.3373 -0.5895  0.2038
   52DOPC   C31 7078   1.690   4.018   4.709  0.6945 -0.0719  0.5959
   52DOPC   O32 7079   1.570   3.998   4.703  0.6852  0.0237 -0.0100
   52DOPC   C32 7080   1.787   3.979   4.596 -0.1302 -0.6330  0.6335
   52DOPC   H2X 7081   1.894   3.969   4.625 -0.3152 -3.8448  0.5317
   52DOPC   H2Y 7082   1.758   3.880   4.556 -1.3040 -0.2955  0.6124
   52DOPC   C23 7083   1.574   4.465   4.578 -0.1662  0.0807  0.0332
   52DOPC   H3R 7084   1.670   4.442   4.527 -1.2520  0.0734 -2.0960
   52DOPC   H3S 7085   1.540   4.553   4.520 -1.9861  0.7744  2.0300
   52DOPC   C24 7086   1.468   4.355   4.534  0.2968  0.0717 -1.1708
   52DOPC   H4R 7087   1.379   4.400   4.583  1.3057 -0.9336  1.7797
   52DOPC   H4S 7088   1.490   4.265   4.595 -0.8439  0.3253 -0.3467
   52DOPC   C25 7089   1.461   4.342   4.386 -0.0955  0.0730  0.3415
   52DOPC   H5R 7090   1.561   4.327   4.340 -0.9713 -1.0617 -1.3031
   52DOPC   H5S 7091   1.421   4.437   4.342 -1.7507 -1.5703 -1.9476
   52DOPC   C26 7092   1.375   4.227   4.330 -0.6105 -0.1923 -0.0396
   52DOPC   H6R 7093   1.265   4.248   4.333 -0.4874  0.4942 -0.0181
   52DOPC   H6S 7094   1.391   4.144   4.402 -3.6518 -0.3578  0.6035
   52DOPC   C27 7095   1.423   4.179   4.184  0.6846  0.7015 -0.6221
   52DOPC   H7R 7096   1.533   4.161   4.184  0.7313  0.5540  2.0474
   52DOPC   H7S 7097   1.402   4.271   4.125 -0.5186  1.6004  1.1157
   52DOPC   C28 7098   1.339   4.059   4.136 -0.0302 -0.1306  0.0709
   52DOPC   H8R 7099   1.232   4.084   4.153 -0.6912 -0.0527 -3.3233
   52DOPC   H8S 7100   1.372   3.967   4.189 -1.6995 -0.2917  0.8782
   52DOPC   C29 7101   1.365   4.044   3.987  0.3664 -0.3112 -0.4572
   52DOPC   H9R 7102   1.459   4.094   3.960 -0.7029  0.9873 -1.9334
   52DOPC  C210 7103   1.274   4.010   3.894 -0.0205 -0.9284 -0.4272
   52DOPC  H10R 7104   1.320   4.010   3.794  0.8836  2.4535 -0.1409
   52DOPC  C211 7105   1.129   3.959   3.919 -0.2321 -0.0622 -0.1464
   52DOPC  H11R 7106   1.100   3.945   4.025 -2.2162  1.1408 -0.4640
   52DOPC  H11S 7107   1.114   3.863   3.865  1.3179  0.0038 -0.7582
   52DOPC  C212 7108   1.019   4.056   3.858  0.2454 -0.3128 -0.1882
   52DOPC  H12R 7109   1.044   4.158   3.894  0.4333 -1.0162  1.7594
   52DOPC  H12S 7110   0.917   4.034   3.897  0.0206  0.3241 -0.3896
   52DOPC  C213 7111   1.025   4.064   3.709  0.5381  0.6465  0.1190
   52DOPC  H13R 7112   1.010   3.962   3.667 -3.4537  1.4515 -0.8879
   52DOPC  H13S 7113   1.120   4.107   3.671 -0.2945  0.5096 -2.2610
   52DOPC  C214 7114   0.913   4.153   3.645 -0.5838  0.0146  0.3116
   52DOPC  H14R 7115   0.950   4.257   3.660 -0.6713 -0.1900  2.2596
   52DOPC  H14S 7116   0.819   4.139   3.702 -0.8870  2.3680  0.5061
   52DOPC  C215 7117   0.901   4.124   3.491  0.8797 -0.4395  0.3866
   52DOPC  H15R 7118   1.001   4.124   3.444  0.8134 -0.4566  0.2449
   52DOPC  H15S 7119   0.840   4.207   3.449  0.2565 -0.1471  1.8195
   52DOPC  C216 7120   0.825   3.995   3.443 -0.2885 -0.9162 -0.0192
   52DOPC  H16R 7121   0.722   4.000   3.485 -0.7056  2.0300 -1.1630
   52DOPC  H16S 7122   0.883   3.917   3.497  1.5542  0.2738 -0.2009
   52DOPC  C217 7123   0.823   3.988   3.292 -0.4311  0.2771  0.3676
   52DOPC  H17R 7124   0.920   3.941   3.266 -0.9730  0.2458 -1.8252
   52DOPC  H17S 7125   0.837   4.092   3.255  0.5745 -0.0788 -0.3065
   52DOPC  C218 7126   0.710   3.910   3.228  0.1020 -0.0888 -0.2785
   52DOPC  H18R 7127   0.610   3.940   3.268  0.3565 -0.8255  0.9845
   52DOPC  H18S 7128   0.719   3.803   3.256  0.3512  0.0506  0.1841
   52DOPC  H18T 7129   0.702   3.922   3.118 -1.2891  0.8007 -0.1149
   52DOPC   C33 7130   1.784   4.073   4.475  0.0858  0.4052  0.5773
   52DOPC   H3X 7131   1.830   4.173   4.493 -1.2686  1.3219 -0.8133
   52DOPC   H3Y 7132   1.679   4.102   4.453 -0.2116  0.4226  1.9559
   52DOPC   C34 7133   1.844   4.009   4.345  0.1237  0.3413  0.0151
   52DOPC   H4X 7134   1.785   3.917   4.327 -0.4599  1.1293 -2.4981
   52DOPC   H4Y 7135   1.950   3.983   4.365 -0.7107 -0.5059  4.3428
   52DOPC   C35 7136   1.835   4.098   4.216  0.4175  0.0160 -0.2380
   52DOPC   H5X 7137   1.913   4.177   4.220  0.8042 -0.3659 -0.2193
   52DOPC   H5Y 7138   1.734   4.144   4.218  0.2825 -0.1725  3.6326
   52DOPC   C36 7139   1.855   4.023   4.084 -0.5760  0.5779  0.2371
   52DOPC   H6X 7140   1.841   4.079   3.989 -2.6431  1.1979  0.8553
   52DOPC   H6Y 7141   1.949   3.964   4.079 -1.8583 -1.7377  1.3421
   52DOPC   C37 7142   1.749   3.905   4.076 -0.6883  0.1428 -0.0601
   52DOPC   H7X 7143   1.794   3.819   4.130  3.8607 -1.1819 -4.9891
   52DOPC   H7Y 7144   1.654   3.940   4.121  0.7821  5.0007 -0.0983
   52DOPC   C38 7145   1.737   3.866   3.927  0.4393 -0.3204 -0.0492
   52DOPC   H8X 7146   1.838   3.834   3.896 -1.0200 -3.7503 -1.8383
   52DOPC   H8Y 7147   1.709   3.954   3.866  1.7734 -1.1913 -2.0154
   52DOPC   C39 7148   1.629   3.762   3.919  0.2435 -0.0375 -0.2048
   52DOPC   H9X 7149   1.535   3.776   3.974 -0.5389 -2.0727 -0.9376
   52DOPC  C310 7150   1.648   3.654   3.833  0.0269 -0.3183  0.2455
   52DOPC  H10X 7151   1.566   3.581   3.832 -1.5040  1.3207  0.3535
   52DOPC  C311 7152   1.771   3.634   3.745  0.3248 -0.8070 -0.4698
   52DOPC  H11X 7153   1.777   3.528   3.712 -0.4799 -0.8593 -0.4820
   52DOPC  H11Y 7154   1.866   3.650   3.799 -0.4674  2.1454  0.1983
   52DOPC  C312 7155   1.772   3.719   3.616  0.0352  0.0922  0.5569
   52DOPC  H12X 7156   1.740   3.822   3.644 -2.3012 -0.5110  0.2983
   52DOPC  H12Y 7157   1.690   3.670   3.560  0.4715 -1.1624  0.9965
   52DOPC  C313 7158   1.910   3.703   3.542  0.2251 -0.1272 -0.3858
   52DOPC  H13X 7159   1.998   3.733   3.602  0.5996  2.0830 -1.8941
   52DOPC  H13Y 7160   1.933   3.600   3.505  3.4514 -0.1579  1.3007
   52DOPC  C314 7161   1.913   3.794   3.422  0.1902 -0.1095 -0.0354
   52DOPC  H14X 7162   1.840   3.760   3.345 -0.2939 -1.1943  0.8889
   52DOPC  H14Y 7163   1.891   3.897   3.460  2.1779  0.7206 -0.9543
   52DOPC  C315 7164   2.052   3.802   3.354 -0.3393 -1.0302 -0.1788
   52DOPC  H15X 7165   2.085   3.703   3.316 -0.2586 -0.6888 -1.0264
   52DOPC  H15Y 7166   2.122   3.824   3.438  0.0382 -2.6139 -0.0448
   52DOPC  C316 7167   2.052   3.908   3.240 -0.1767 -0.0452  0.1039
   52DOPC  H16X 7168   1.993   3.869   3.154 -0.5041  0.8765 -0.0997
   52DOPC  H16Y 7169   2.002   3.998   3.282  0.1269 -0.3598  1.1611
   52DOPC  C317 7170   2.194   3.950   3.204  0.6755  0.8651 -0.5796
   52DOPC  H17X 7171   2.253   3.858   3.186  0.1686  0.6320 -1.0571
   52DOPC  H17Y 7172   2.200   4.017   3.115  3.1609  3.6162  1.4484
   52DOPC  C318 7173   2.269   4.036   3.310 -0.7840  0.2727 -0.2180
   52DOPC  H18X 7174   2.221   4.135   3.323 -0.6463  0.1988  0.9205
   52DOPC  H18Y 7175   2.249   3.992   3.410 -0.3493  1.1450  0.2670
   52DOPC  H18Z 7176   2.379   4.047   3.293 -0.8026  0.7430 -0.0438
   53DOPC     N 7177   7.776   6.767   5.772  0.5704  0.1122 -0.2656
   53DOPC   C12 7178   7.680   6.801   5.652  0.0747  0.7915 -0.6592
   53DOPC  H12A 7179   7.736   6.820   5.562 -0.2188 -2.3917 -1.6722
   53DOPC  H12B 7180   7.625   6.891   5.674 -1.6346 -0.0405 -1.3049
   53DOPC   C13 7181   7.855   6.890   5.791 -0.0408 -0.0954  0.5893
   53DOPC  H13A 7182   7.933   6.883   5.866  1.0049  0.2357 -0.4269
   53DOPC  H13B 7183   7.908   6.912   5.699  1.1365  3.3494  1.9267
   53DOPC  H13C 7184   7.801   6.978   5.822  0.5704 -0.7455  3.8929
   53DOPC   C14 7185   7.879   6.665   5.731  0.5623  0.3275 -0.0161
   53DOPC  H14A 7186   7.918   6.678   5.631 -0.4363  1.0414 -0.3237
   53DOPC  H14B 7187   7.961   6.665   5.801 -0.5667 -1.3631  1.4057
   53DOPC  H14C 7188   7.843   6.563   5.730  3.2408 -0.7201  0.7976
   53DOPC   C15 7189   7.712   6.740   5.909  0.4401  0.7765 -0.1653
   53DOPC  H15A 7190   7.648   6.654   5.893  0.4346  1.1189 -2.2019
   53DOPC  H15B 7191   7.659   6.827   5.946  0.6844  0.4452  1.0052
   53DOPC  H15C 7192   7.782   6.716   5.988  1.6484  1.5004 -0.9940
   53DOPC   C11 7193   7.571   6.701   5.604 -0.8301 -0.3713  0.4826
   53DOPC  H11A 7194   7.492   6.692   5.683 -0.9085 -0.0212  0.4483
   53DOPC  H11B 7195   7.509   6.749   5.526 -2.3214 -2.1064  0.5248
   53DOPC     P 7196   7.697   6.550   5.421  0.1920 -0.1033 -0.1264
   53DOPC   O13 7197   7.622   6.438   5.370  0.5230  0.1437  0.1009
   53DOPC   O14 7198   7.839   6.532   5.445 -0.2729 -0.4523 -0.2573
   53DOPC   O12 7199   7.624   6.577   5.557  0.1055  0.2575 -0.5211
   53DOPC   O11 7200   7.664   6.685   5.344 -0.3971  0.4536 -0.6996
   53DOPC    C1 7201   7.565   6.703   5.245  0.3106 -0.7925 -0.5464
   53DOPC    HA 7202   7.549   6.811   5.222 -0.0633 -0.4667  1.1087
   53DOPC    HB 7203   7.468   6.660   5.280 -0.0390 -0.0804 -0.6245
   53DOPC    C2 7204   7.575   6.628   5.105  0.8109 -0.2780  0.5420
   53DOPC    HS 7205   7.601   6.525   5.140 -0.2921 -0.7946 -0.0910
   53DOPC   O21 7206   7.671   6.695   5.022  0.3942  0.3249  0.0977
   53DOPC   C21 7207   7.742   6.622   4.950 -0.5100 -0.0095  0.7397
   53DOPC   O22 7208   7.772   6.503   4.969  0.1966 -0.0476 -0.1911
   53DOPC   C22 7209   7.802   6.694   4.823 -0.4759 -0.2445 -0.2507
   53DOPC   H2R 7210   7.835   6.791   4.865  0.7889 -1.7538  2.4629
   53DOPC   H2S 7211   7.717   6.725   4.758 -1.7805  0.1588  1.5717
   53DOPC    C3 7212   7.439   6.607   5.027  0.3321 -0.8705 -0.0111
   53DOPC    HX 7213   7.401   6.710   5.010 -0.2180 -1.1101 -0.2558
   53DOPC    HY 7214   7.360   6.557   5.087 -2.6250  1.4524 -1.6333
   53DOPC   O31 7215   7.464   6.536   4.906  0.3750  0.6826 -0.3543
   53DOPC   C31 7216   7.378   6.560   4.802 -1.1106  0.0111 -0.3351
   53DOPC   O32 7217   7.291   6.643   4.803 -0.2485 -0.3489  0.5327
   53DOPC   C32 7218   7.402   6.463   4.687  0.7600 -0.1332 -0.5702
   53DOPC   H2X 7219   7.433   6.368   4.735  1.8368  1.1327  1.3710
   53DOPC   H2Y 7220   7.310   6.450   4.627  0.5209 -1.6485  0.0749
   53DOPC   C23 7221   7.898   6.603   4.751 -0.5721 -0.1641  1.0556
   53DOPC   H3R 7222   7.858   6.507   4.713 -0.5276 -1.1169  3.2626
   53DOPC   H3S 7223   7.968   6.561   4.826  0.3550 -1.3276 -0.4072
   53DOPC   C24 7224   7.992   6.682   4.650 -0.1359  0.6831  0.3119
   53DOPC   H4R 7225   8.029   6.781   4.685 -0.2506 -0.3050  3.5714
   53DOPC   H4S 7226   7.932   6.706   4.560 -2.0612 -0.6015  1.1869
   53DOPC   C25 7227   8.120   6.607   4.615  0.5369 -0.1351  0.2990
   53DOPC   H5R 7228   8.184   6.594   4.705 -0.8289 -1.9634  1.0773
   53DOPC   H5S 7229   8.169   6.675   4.542 -1.2193  1.9963  1.0087
   53DOPC   C26 7230   8.101   6.475   4.549  0.2121 -0.6973  0.6892
   53DOPC   H6R 7231   8.066   6.496   4.446  2.2111  0.1386  0.1346
   53DOPC   H6S 7232   8.033   6.408   4.608 -1.9254  0.7959  0.0483
   53DOPC   C27 7233   8.237   6.407   4.549 -0.3885  0.2246  0.2410
   53DOPC   H7R 7234   8.280   6.413   4.651 -1.3290 -0.7133  0.7095
   53DOPC   H7S 7235   8.298   6.478   4.489 -2.1016  1.4507 -0.1236
   53DOPC   C28 7236   8.229   6.272   4.490 -0.6744  0.2077 -0.1441
   53DOPC   H8R 7237   8.182   6.288   4.391 -0.4890  2.5848  0.0940
   53DOPC   H8S 7238   8.153   6.210   4.543 -0.0551 -0.3499  0.1087
   53DOPC   C29 7239   8.368   6.209   4.478  0.2532  0.1876  0.4733
   53DOPC   H9R 7240   8.408   6.190   4.579 -1.3556 -2.8357  0.6647
   53DOPC  C210 7241   8.439   6.180   4.367 -0.0928  0.3362 -0.4937
   53DOPC  H10R 7242   0.002   6.133   4.387 -0.3258  0.0673  0.0501
   53DOPC  C211 7243   8.412   6.203   4.218  0.1935  0.3215 -0.2303
   53DOPC  H11R 7244   8.483   6.278   4.178 -0.3458  2.3487  2.3624
   53DOPC  H11S 7245   8.311   6.247   4.211 -0.6027 -1.4944 -0.8569
   53DOPC  C212 7246   8.403   6.080   4.128 -0.9463  0.3615  0.4712
   53DOPC  H12R 7247   8.304   6.038   4.158  0.2606 -1.8464  1.5929
   53DOPC  H12S 7248   8.489   6.019   4.160 -0.4043  1.1377  0.5347
   53DOPC  C213 7249   8.405   6.115   3.981 -0.5884 -0.4961  0.3312
   53DOPC  H13R 7250   8.506   6.147   3.947 -0.7148  1.5090  1.6792
   53DOPC  H13S 7251   8.344   6.208   3.982 -0.3357 -0.3240  1.7139
   53DOPC  C214 7252   8.344   6.022   3.881  0.2675  0.8365  0.0459
   53DOPC  H14R 7253   8.241   6.000   3.916 -0.2209  0.4423 -1.5520
   53DOPC  H14S 7254   8.408   5.932   3.869 -0.5469  0.0053  1.5604
   53DOPC  C215 7255   8.327   6.094   3.742 -0.2342  0.0849  0.4216
   53DOPC  H15R 7256   8.420   6.139   3.701 -0.9609  3.3854  2.0481
   53DOPC  H15S 7257   8.254   6.178   3.755 -0.7424 -0.2373 -0.2811
   53DOPC  C216 7258   8.278   6.001   3.635 -0.3242  0.1998  0.7617
   53DOPC  H16R 7259   8.334   5.909   3.605 -0.0611  0.3248  0.8633
   53DOPC  H16S 7260   8.292   6.066   3.546 -0.9536 -0.3844  0.2267
   53DOPC  C217 7261   8.131   5.983   3.652 -0.5205  0.2109  0.3741
   53DOPC  H17R 7262   8.073   6.071   3.685 -1.3290 -0.5703  1.0457
   53DOPC  H17S 7263   8.129   5.916   3.740  1.2625 -0.2760  0.0989
   53DOPC  C218 7264   8.069   5.905   3.538 -0.1036  0.3868 -0.1930
   53DOPC  H18R 7265   8.132   5.818   3.508 -0.3172  1.1689 -3.2797
   53DOPC  H18S 7266   8.068   5.967   3.446 -1.6859  0.7624  0.0459
   53DOPC  H18T 7267   7.965   5.871   3.559  0.2887 -0.2125  0.8699
   53DOPC   C33 7268   7.513   6.510   4.589  0.2309 -0.3484  0.1540
   53DOPC   H3X 7269   7.595   6.550   4.653 -0.9981 -0.1971  1.6973
   53DOPC   H3Y 7270   7.481   6.589   4.518 -0.4809 -1.0361 -0.3052
   53DOPC   C34 7271   7.585   6.390   4.514 -0.2607 -0.5867  0.3114
   53DOPC   H4X 7272   7.502   6.353   4.451 -0.2787  0.0262 -0.0265
   53DOPC   H4Y 7273   7.619   6.311   4.586 -1.9049 -1.4541  0.1843
   53DOPC   C35 7274   7.703   6.437   4.439 -0.3234  0.8465  0.4969
   53DOPC   H5X 7275   7.788   6.445   4.510 -0.0734 -0.2052  0.3363
   53DOPC   H5Y 7276   7.675   6.531   4.388  1.8740  2.4024  1.9993
   53DOPC   C36 7277   7.747   6.344   4.326 -0.2812 -0.1243 -0.0140
   53DOPC   H6X 7278   7.675   6.351   4.242  1.0145 -1.7873 -1.3185
   53DOPC   H6Y 7279   7.845   6.379   4.288 -0.4404 -0.4335 -0.7179
   53DOPC   C37 7280   7.771   6.199   4.362 -0.0326 -0.3780 -0.3649
   53DOPC   H7X 7281   7.851   6.201   4.439 -0.4555  1.4824  0.0817
   53DOPC   H7Y 7282   7.681   6.144   4.395 -0.9999  1.2040 -0.2558
   53DOPC   C38 7283   7.818   6.128   4.236  0.1224 -0.6225 -0.0762
   53DOPC   H8X 7284   7.734   6.143   4.165 -1.7358  2.5482  2.5121
   53DOPC   H8Y 7285   7.814   6.018   4.245  1.9683 -0.6865  0.4958
   53DOPC   C39 7286   7.957   6.156   4.189  0.3525  0.7313  0.7592
   53DOPC   H9X 7287   8.031   6.137   4.268  0.0558  2.9411  1.6364
   53DOPC  C310 7288   7.997   6.191   4.064 -0.3014  0.2716 -0.9619
   53DOPC  H10X 7289   8.106   6.189   4.052  0.0323 -0.7977  1.6313
   53DOPC  C311 7290   7.921   6.209   3.938 -0.5955 -0.1576  0.0483
   53DOPC  H11X 7291   7.843   6.130   3.930 -0.5383 -0.0858 -1.5099
   53DOPC  H11Y 7292   7.981   6.205   3.845 -1.1198  1.8532 -0.4248
   53DOPC  C312 7293   7.851   6.342   3.931  0.2522 -0.5707  0.5619
   53DOPC  H12X 7294   7.918   6.429   3.941 -0.9591  0.4022  0.4184
   53DOPC  H12Y 7295   7.768   6.343   4.004 -0.8506 -0.2941 -0.6611
   53DOPC  C313 7296   7.773   6.363   3.802  0.1513 -0.4388 -0.2225
   53DOPC  H13X 7297   7.720   6.460   3.797  0.0430 -0.5112 -0.5095
   53DOPC  H13Y 7298   7.842   6.350   3.716  0.6611 -0.3549  0.1722
   53DOPC  C314 7299   7.666   6.257   3.784  0.3445  0.5943  0.0744
   53DOPC  H14X 7300   7.723   6.169   3.748 -0.7548  0.7485 -2.2837
   53DOPC  H14Y 7301   7.610   6.233   3.876 -2.0338 -1.3852 -1.7528
   53DOPC  C315 7302   7.556   6.299   3.686  0.6791  0.6220  0.4468
   53DOPC  H15X 7303   7.592   6.313   3.582  0.0789  1.5975  0.3588
   53DOPC  H15Y 7304   7.514   6.397   3.718 -0.8829  0.8810 -2.1113
   53DOPC  C316 7305   7.433   6.197   3.701  1.1151 -0.0250  0.5331
   53DOPC  H16X 7306   7.478   6.097   3.689 -1.1785 -1.3203  2.0027
   53DOPC  H16Y 7307   7.393   6.200   3.805 -0.1528  1.0069  0.0471
   53DOPC  C317 7308   7.317   6.227   3.606  0.2933 -0.4508 -1.1060
   53DOPC  H17X 7309   7.280   6.332   3.613  0.3392 -0.4341 -1.1037
   53DOPC  H17Y 7310   7.359   6.222   3.503 -0.7956 -0.5125 -1.5605
   53DOPC  C318 7311   7.200   6.126   3.637 -0.0989 -0.7429  0.1074
   53DOPC  H18X 7312   7.165   6.160   3.737 -0.4629 -2.7580  0.6963
   53DOPC  H18Y 7313   7.121   6.143   3.560  0.5014  3.4765  0.1743
   53DOPC  H18Z 7314   7.227   6.019   3.636  0.9911 -0.4810  0.5517
   54DOPC     N 7315   1.513   6.590   5.443 -0.1403  0.5828 -0.0294
   54DOPC   C12 7316   1.435   6.717   5.470  0.1379  0.2919 -0.6447
   54DOPC  H12A 7317   1.450   6.740   5.574  1.1860  0.4379 -0.8236
   54DOPC  H12B 7318   1.330   6.689   5.474 -0.3413  2.1252  1.1821
   54DOPC   C13 7319   1.466   6.485   5.538  0.4353  0.4780  0.6340
   54DOPC  H13A 7320   1.532   6.399   5.533 -1.6825 -1.1561 -1.2641
   54DOPC  H13B 7321   1.470   6.513   5.642  0.0325 -1.5061  1.2282
   54DOPC  H13C 7322   1.362   6.468   5.515 -0.0760  0.9500  2.4056
   54DOPC   C14 7323   1.657   6.611   5.457  0.0233 -0.4055 -0.1587
   54DOPC  H14A 7324   1.694   6.684   5.387 -1.6951  0.8601  0.1845
   54DOPC  H14B 7325   1.689   6.647   5.553 -2.1228  0.5516  0.2450
   54DOPC  H14C 7326   1.714   6.520   5.447  1.9266  0.7632 -0.4519
   54DOPC   C15 7327   1.493   6.545   5.302  0.2816 -0.0276 -0.6034
   54DOPC  H15A 7328   1.525   6.613   5.224  1.5489  1.4292  1.1076
   54DOPC  H15B 7329   1.392   6.516   5.279 -0.4936 -0.0203  2.3847
   54DOPC  H15C 7330   1.554   6.457   5.287 -1.6566 -1.2956 -1.3377
   54DOPC   C11 7331   1.467   6.844   5.385 -0.0433 -0.2495 -0.1504
   54DOPC  H11A 7332   1.576   6.855   5.368 -0.2365  0.9834 -0.6757
   54DOPC  H11B 7333   1.420   6.831   5.285  0.3580 -0.9189 -0.2649
   54DOPC     P 7334   1.411   7.103   5.407 -0.0391  0.3233 -0.1107
   54DOPC   O13 7335   1.547   7.153   5.383 -0.4992 -0.0515  0.0175
   54DOPC   O14 7336   1.321   7.184   5.499 -0.1261  0.3612  0.6444
   54DOPC   O12 7337   1.412   6.954   5.459 -0.3194  0.1758  0.3664
   54DOPC   O11 7338   1.339   7.095   5.264  0.2320  0.2699 -0.2536
   54DOPC    C1 7339   1.208   7.048   5.251 -0.3491 -0.5611 -0.2216
   54DOPC    HA 7340   1.124   7.103   5.297 -1.6052 -2.6549  0.1304
   54DOPC    HB 7341   1.203   6.943   5.288 -0.9152 -1.3727 -2.4679
   54DOPC    C2 7342   1.171   7.041   5.095 -0.1885  0.1133 -0.2480
   54DOPC    HS 7343   1.084   6.975   5.073 -0.0931 -0.2785  0.5137
   54DOPC   O21 7344   1.281   7.007   5.011 -0.4472  0.2280  0.1494
   54DOPC   C21 7345   1.333   6.888   5.036 -0.1282 -0.7574 -0.3784
   54DOPC   O22 7346   1.285   6.802   5.104 -0.1247  0.2519 -0.4610
   54DOPC   C22 7347   1.463   6.872   4.957 -0.1546  0.3615 -0.6441
   54DOPC   H2R 7348   1.550   6.907   5.017 -1.1623  1.1533  0.4200
   54DOPC   H2S 7349   1.452   6.945   4.874 -1.5946  0.2544 -0.5655
   54DOPC    C3 7350   1.128   7.190   5.054  0.0356 -0.1738 -0.8677
   54DOPC    HX 7351   1.222   7.248   5.038  0.1150  0.0010  0.1227
   54DOPC    HY 7352   1.079   7.238   5.142  0.7119 -0.8547 -0.0988
   54DOPC   O31 7353   1.051   7.197   4.933 -0.0928  0.3321 -0.3774
   54DOPC   C31 7354   0.929   7.258   4.940 -0.5158  1.3003  0.4019
   54DOPC   O32 7355   0.879   7.306   5.040 -0.8160 -0.3206 -0.3359
   54DOPC   C32 7356   0.853   7.230   4.802 -0.5146 -0.0273  0.0998
   54DOPC   H2X 7357   0.785   7.318   4.796 -0.7017  0.2169  3.5891
   54DOPC   H2Y 7358   0.921   7.255   4.718 -0.8250  0.3220 -0.0486
   54DOPC   C23 7359   1.486   6.720   4.918  0.4683 -0.4100 -0.5698
   54DOPC   H3R 7360   1.408   6.695   4.844 -2.9756  1.0241  2.2841
   54DOPC   H3S 7361   1.470   6.667   5.014  0.7621  1.1282  0.3729
   54DOPC   C24 7362   1.628   6.690   4.872  0.0653  0.5989 -0.1128
   54DOPC   H4R 7363   1.632   6.584   4.840 -2.3650  0.8212 -1.3833
   54DOPC   H4S 7364   1.697   6.706   4.958  2.4162 -1.7903 -1.4155
   54DOPC   C25 7365   1.683   6.769   4.749  0.8620  0.2672  0.7411
   54DOPC   H5R 7366   1.780   6.738   4.703 -0.5259 -0.9578 -1.5918
   54DOPC   H5S 7367   1.701   6.875   4.776  1.7098  0.9094 -2.0334
   54DOPC   C26 7368   1.582   6.776   4.636  0.0748  0.6002  0.0359
   54DOPC   H6R 7369   1.491   6.828   4.671 -0.9104 -1.1167  0.1559
   54DOPC   H6S 7370   1.548   6.672   4.615  1.0036  0.4225 -0.6620
   54DOPC   C27 7371   1.635   6.824   4.504 -0.2225 -0.4622  0.5984
   54DOPC   H7R 7372   1.722   6.757   4.486 -0.2007 -0.3786  0.3953
   54DOPC   H7S 7373   1.671   6.928   4.518 -0.6038 -0.4306  1.3590
   54DOPC   C28 7374   1.543   6.818   4.381  0.2988  0.0167 -0.4598
   54DOPC   H8R 7375   1.592   6.865   4.292  0.4087 -0.0633 -0.4412
   54DOPC   H8S 7376   1.446   6.869   4.402  0.3635 -1.3578  3.9908
   54DOPC   C29 7377   1.517   6.669   4.354  0.6968  0.7901  0.2646
   54DOPC   H9R 7378   1.426   6.628   4.401  0.6620  0.0412 -0.4284
   54DOPC  C210 7379   1.569   6.593   4.257  0.6096  0.1114  0.4050
   54DOPC  H10R 7380   1.515   6.498   4.242 -0.8252  0.7402  1.2863
   54DOPC  C211 7381   1.687   6.633   4.164  0.6713 -0.3287 -0.0811
   54DOPC  H11R 7382   1.767   6.560   4.140  0.1322 -0.1183 -2.7960
   54DOPC  H11S 7383   1.739   6.716   4.216 -1.1832  0.7454  0.1649
   54DOPC  C212 7384   1.642   6.700   4.030  0.2184 -0.0040 -0.4317
   54DOPC  H12R 7385   1.566   6.778   4.048 -1.1556 -0.2027 -4.3310
   54DOPC  H12S 7386   1.589   6.628   3.963 -0.3877  0.5580 -0.5615
   54DOPC  C213 7387   1.760   6.757   3.935 -0.0841  0.4725 -0.1947
   54DOPC  H13R 7388   1.804   6.839   3.996  2.8780 -2.0768  1.3943
   54DOPC  H13S 7389   1.713   6.801   3.845  0.2780  1.5157  0.1148
   54DOPC  C214 7390   1.862   6.650   3.889 -0.3532 -0.2129 -1.5586
   54DOPC  H14R 7391   1.820   6.562   3.836  0.3929 -0.0273 -2.4876
   54DOPC  H14S 7392   1.910   6.613   3.983 -1.6138 -2.8773 -1.8715
   54DOPC  C215 7393   1.965   6.711   3.794 -0.8355 -0.2192  0.2679
   54DOPC  H15R 7394   2.042   6.632   3.775 -1.2316 -0.3334 -0.9687
   54DOPC  H15S 7395   2.014   6.804   3.830 -2.0099  1.8506 -3.0570
   54DOPC  C216 7396   1.912   6.746   3.659 -0.7366 -0.2890  0.4803
   54DOPC  H16R 7397   1.837   6.828   3.659  2.3758  2.7949 -0.0898
   54DOPC  H16S 7398   1.857   6.656   3.626 -0.8020 -0.3010  0.6207
   54DOPC  C217 7399   2.026   6.791   3.566 -0.2770  0.1919 -0.9161
   54DOPC  H17R 7400   2.115   6.725   3.562 -1.1211 -1.1897  1.5156
   54DOPC  H17S 7401   2.062   6.893   3.591  1.9171 -0.5217 -0.9038
   54DOPC  C218 7402   1.968   6.787   3.418 -1.1403  0.0334 -0.0464
   54DOPC  H18R 7403   1.929   6.688   3.386  0.5549 -0.6940  0.0380
   54DOPC  H18S 7404   2.050   6.805   3.345 -2.4472 -1.7753 -2.1303
   54DOPC  H18T 7405   1.895   6.870   3.409 -2.6364 -0.8814  2.5980
   54DOPC   C33 7406   0.774   7.098   4.802  0.2300  0.6415 -1.1087
   54DOPC   H3X 7407   0.723   7.081   4.705 -0.4811  0.1760 -0.6592
   54DOPC   H3Y 7408   0.705   7.110   4.888  1.7007  1.1041  0.0569
   54DOPC   C34 7409   0.855   6.971   4.825 -0.1487 -0.4598  0.8355
   54DOPC   H4X 7410   0.794   6.884   4.858 -1.2850 -0.2239 -0.5605
   54DOPC   H4Y 7411   0.941   6.989   4.893  0.3545  2.8194 -0.4788
   54DOPC   C35 7412   0.918   6.933   4.684 -0.3783 -0.6402 -0.3875
   54DOPC   H5X 7413   0.952   7.019   4.623 -0.3785 -0.7488 -0.5406
   54DOPC   H5Y 7414   0.839   6.884   4.623 -1.5180 -1.3310  1.5554
   54DOPC   C36 7415   1.042   6.841   4.702 -0.1615  0.1077  0.8289
   54DOPC   H6X 7416   1.033   6.789   4.800 -2.1338  1.4558  1.4110
   54DOPC   H6Y 7417   1.057   6.767   4.621  0.7316 -0.0446  1.1151
   54DOPC   C37 7418   1.175   6.924   4.711 -0.0283  0.1099  0.0808
   54DOPC   H7X 7419   1.156   7.022   4.758 -0.8503 -1.3509  3.0356
   54DOPC   H7Y 7420   1.252   6.879   4.778 -1.0915  0.4230  1.5557
   54DOPC   C38 7421   1.244   6.948   4.574  0.6821  0.7322  0.7737
   54DOPC   H8X 7422   1.278   6.844   4.555 -2.4673 -0.1104 -1.0718
   54DOPC   H8Y 7423   1.318   7.029   4.590 -1.2480  3.2094 -1.9559
   54DOPC   C39 7424   1.156   6.988   4.455 -0.2942  0.5954  0.1910
   54DOPC   H9X 7425   1.118   7.091   4.463 -1.6435  0.3849 -2.3200
   54DOPC  C310 7426   1.131   6.921   4.341  0.1695 -0.2211  0.2509
   54DOPC  H10X 7427   1.095   6.973   4.251 -0.3691 -0.4727  0.3223
   54DOPC  C311 7428   1.174   6.783   4.303 -0.3652  0.0295  0.1085
   54DOPC  H11X 7429   1.089   6.717   4.275 -0.5993 -0.5255  2.0097
   54DOPC  H11Y 7430   1.235   6.740   4.385 -0.5071 -1.7720 -0.6957
   54DOPC  C312 7431   1.266   6.782   4.173  0.1353 -0.3216 -0.1122
   54DOPC  H12X 7432   1.317   6.683   4.167 -0.0974 -0.3505 -2.2289
   54DOPC  H12Y 7433   1.343   6.860   4.191 -1.5873  1.8215 -1.5415
   54DOPC  C313 7434   1.198   6.810   4.042 -0.1534 -0.2684  0.7225
   54DOPC  H13X 7435   1.102   6.758   4.020 -1.5058  1.6027  1.9200
   54DOPC  H13Y 7436   1.163   6.915   4.039  0.4102 -0.0851 -2.1070
   54DOPC  C314 7437   1.303   6.799   3.930  0.2293  0.0817  0.5428
   54DOPC  H14X 7438   1.389   6.868   3.945 -0.4404  0.7038  1.6983
   54DOPC  H14Y 7439   1.338   6.694   3.918  1.1322  0.2645  1.3949
   54DOPC  C315 7440   1.254   6.844   3.790 -0.6448 -0.0432 -0.0867
   54DOPC  H15X 7441   1.233   6.952   3.808  1.1810 -0.0734  3.0004
   54DOPC  H15Y 7442   1.156   6.795   3.775 -0.5193 -1.3048  2.5792
   54DOPC  C316 7443   1.356   6.819   3.674  0.7066 -0.2076  0.0009
   54DOPC  H16X 7444   1.307   6.849   3.579 -0.4328  0.3771  0.7540
   54DOPC  H16Y 7445   1.437   6.894   3.684  0.4802 -0.0972  1.0510
   54DOPC  C317 7446   1.416   6.676   3.665 -0.0630  0.4238 -0.1173
   54DOPC  H17X 7447   1.472   6.654   3.758 -0.6714 -2.6692 -0.3658
   54DOPC  H17Y 7448   1.342   6.594   3.667 -1.0786  1.2836 -1.0667
   54DOPC  C318 7449   1.498   6.658   3.537 -0.0664 -0.7586  0.9745
   54DOPC  H18X 7450   1.421   6.630   3.462 -1.8162  2.0146  1.5656
   54DOPC  H18Y 7451   1.526   6.758   3.498 -1.6033 -0.9045 -0.6357
   54DOPC  H18Z 7452   1.577   6.582   3.553  0.2348 -0.8229 -0.6260
   55DOPC     N 7453   1.607   5.759   5.131 -0.6940  0.3177 -0.4981
   55DOPC   C12 7454   1.709   5.833   5.217 -0.5777 -0.4236  0.3643
   55DOPC  H12A 7455   1.680   5.935   5.233  0.1158  0.1773 -1.8797
   55DOPC  H12B 7456   1.794   5.835   5.150 -0.2532  0.9968  0.7901
   55DOPC   C13 7457   1.596   5.825   4.999 -0.1113  0.0602 -0.1632
   55DOPC  H13A 7458   1.694   5.822   4.954 -0.4276 -1.8189 -0.7969
   55DOPC  H13B 7459   1.531   5.763   4.940  1.9710 -1.8586 -0.5664
   55DOPC  H13C 7460   1.549   5.921   5.013  2.9260  1.7305 -0.6341
   55DOPC   C14 7461   1.474   5.738   5.190  0.3348  0.0128 -1.1747
   55DOPC  H14A 7462   1.433   5.838   5.198  1.2665  0.3742 -0.8072
   55DOPC  H14B 7463   1.406   5.688   5.122  0.3890 -1.4003 -0.2168
   55DOPC  H14C 7464   1.471   5.704   5.292 -0.8465  1.2052 -0.7725
   55DOPC   C15 7465   1.655   5.621   5.123  0.3325  0.6082  0.1175
   55DOPC  H15A 7466   1.632   5.568   5.214 -1.0205  0.3872 -0.3217
   55DOPC  H15B 7467   1.761   5.624   5.106  0.4291  4.1384  0.6396
   55DOPC  H15C 7468   1.604   5.573   5.040  0.0427 -0.4604  0.8923
   55DOPC   C11 7469   1.743   5.779   5.359  0.2500  0.4876  0.0737
   55DOPC  H11A 7470   1.653   5.792   5.422 -1.5953 -1.1231 -2.0677
   55DOPC  H11B 7471   1.761   5.669   5.353  0.5281 -0.0039  5.3385
   55DOPC     P 7472   1.855   5.993   5.462 -0.3318  0.1416  0.2154
   55DOPC   O13 7473   1.972   6.018   5.546  0.0019 -0.6280  0.3511
   55DOPC   O14 7474   1.725   6.005   5.523 -0.5935  0.0327 -0.1187
   55DOPC   O12 7475   1.863   5.850   5.394  0.9953 -0.2061 -0.3517
   55DOPC   O11 7476   1.862   6.083   5.332 -0.6072  0.1534 -0.2033
   55DOPC    C1 7477   1.953   6.053   5.224 -0.0331 -0.5986 -0.4760
   55DOPC    HA 7478   1.929   5.952   5.185 -0.6130 -0.4538 -0.5030
   55DOPC    HB 7479   2.059   6.070   5.252 -0.1506  0.3693 -0.5790
   55DOPC    C2 7480   1.918   6.152   5.097 -0.1409  0.4071 -0.1556
   55DOPC    HS 7481   1.947   6.248   5.144  0.8136 -1.1395  2.6399
   55DOPC   O21 7482   1.773   6.153   5.071 -0.2093  0.1187 -0.5101
   55DOPC   C21 7483   1.707   6.263   5.080 -0.0897 -0.0922 -0.5902
   55DOPC   O22 7484   1.743   6.374   5.119  0.2508 -0.0492 -0.4423
   55DOPC   C22 7485   1.569   6.221   5.035  0.0395 -0.2091 -0.2363
   55DOPC   H2R 7486   1.499   6.229   5.122 -0.9456 -0.2195 -1.0117
   55DOPC   H2S 7487   1.569   6.115   5.002  0.5233 -0.1730 -0.3579
   55DOPC    C3 7488   1.994   6.125   4.965 -0.3680  0.5672 -0.1909
   55DOPC    HX 7489   1.951   6.031   4.924  1.8132 -0.4048 -0.3803
   55DOPC    HY 7490   2.102   6.105   4.981 -0.1477  1.3771 -0.6150
   55DOPC   O31 7491   1.971   6.226   4.867 -0.2419  0.4829 -0.3091
   55DOPC   C31 7492   2.066   6.309   4.833  0.0113  0.0993  0.9240
   55DOPC   O32 7493   2.179   6.310   4.879 -0.8308 -0.0721  0.0519
   55DOPC   C32 7494   2.022   6.405   4.717  0.6275 -0.1013  0.1585
   55DOPC   H2X 7495   1.912   6.412   4.722  0.6935  0.4835  0.9341
   55DOPC   H2Y 7496   2.064   6.505   4.740 -3.9658  1.7163  1.8289
   55DOPC   C23 7497   1.522   6.309   4.913 -0.0863  0.3450 -0.1756
   55DOPC   H3R 7498   1.509   6.417   4.936 -0.4913  0.7928 -2.2906
   55DOPC   H3S 7499   1.418   6.282   4.881 -0.8128  0.5117  1.8910
   55DOPC   C24 7500   1.619   6.298   4.795  0.3469  0.0780  0.5787
   55DOPC   H4R 7501   1.720   6.302   4.839  0.7511 -1.9566 -0.0729
   55DOPC   H4S 7502   1.595   6.388   4.734 -0.3587 -0.8804 -0.6198
   55DOPC   C25 7503   1.599   6.178   4.700  0.2256  0.4973 -0.8517
   55DOPC   H5R 7504   1.495   6.194   4.664  0.1079 -0.7915 -1.1386
   55DOPC   H5S 7505   1.598   6.087   4.764  0.4119  2.1172  1.5954
   55DOPC   C26 7506   1.687   6.175   4.579 -0.2894  0.2142 -0.3787
   55DOPC   H6R 7507   1.777   6.111   4.595 -2.1171 -2.5570 -0.4359
   55DOPC   H6S 7508   1.718   6.278   4.553 -0.5584 -0.0669 -1.8678
   55DOPC   C27 7509   1.619   6.119   4.453  0.1191  0.2499 -0.6357
   55DOPC   H7R 7510   1.528   6.179   4.431  0.0487 -0.2250 -1.7501
   55DOPC   H7S 7511   1.596   6.016   4.487  1.7011 -0.4294 -1.5118
   55DOPC   C28 7512   1.690   6.133   4.318 -0.9138  0.4445 -1.0385
   55DOPC   H8R 7513   1.791   6.087   4.330 -1.8661 -1.0476  2.4308
   55DOPC   H8S 7514   1.712   6.239   4.296 -0.8165  0.6166 -0.1485
   55DOPC   C29 7515   1.605   6.073   4.204  0.5976  0.2442 -0.4039
   55DOPC   H9R 7516   1.504   6.116   4.195  0.5049  0.0054 -0.4932
   55DOPC  C210 7517   1.639   5.966   4.126  0.1755  0.4868 -0.0574
   55DOPC  H10R 7518   1.564   5.928   4.055  0.7537  0.2209 -0.5338
   55DOPC  C211 7519   1.754   5.878   4.144  0.5042 -0.3721  0.2375
   55DOPC  H11R 7520   1.744   5.780   4.094 -0.4364 -0.0743 -0.1808
   55DOPC  H11S 7521   1.782   5.856   4.250 -0.8250 -1.8023  0.3071
   55DOPC  C212 7522   1.887   5.930   4.087  0.6111 -0.2360 -0.3335
   55DOPC  H12R 7523   1.970   5.868   4.125 -0.9948 -1.9539  0.5258
   55DOPC  H12S 7524   1.902   6.036   4.118  1.6198 -0.7618  1.0832
   55DOPC  C213 7525   1.898   5.926   3.933 -0.0649  0.0125 -1.3933
   55DOPC  H13R 7526   1.816   5.988   3.890 -0.9742  0.3901  0.7998
   55DOPC  H13S 7527   1.892   5.823   3.892 -1.3533 -1.3320  1.8816
   55DOPC  C214 7528   2.042   5.977   3.895  0.6378 -0.2003  0.1340
   55DOPC  H14R 7529   2.119   5.911   3.942  2.5483  2.4141  0.8942
   55DOPC  H14S 7530   2.066   6.076   3.940  5.6337 -1.6973  1.4090
   55DOPC  C215 7531   2.059   5.994   3.742 -0.2607 -0.4790 -0.3106
   55DOPC  H15R 7532   2.148   6.057   3.718  0.6322 -1.0271  1.4098
   55DOPC  H15S 7533   1.979   6.051   3.690  0.3999 -0.0672 -0.9043
   55DOPC  C216 7534   2.073   5.866   3.660 -0.4190  0.3297 -0.2402
   55DOPC  H16R 7535   2.054   5.873   3.551 -0.2833 -0.5493 -0.3318
   55DOPC  H16S 7536   1.992   5.794   3.684  0.1028 -0.5178 -0.9577
   55DOPC  C217 7537   2.215   5.803   3.689  0.1332 -0.3816  0.4259
   55DOPC  H17R 7538   2.228   5.784   3.798 -1.7860 -1.4061  0.5186
   55DOPC  H17S 7539   2.288   5.880   3.657 -0.3627 -0.7696 -1.8566
   55DOPC  C218 7540   2.251   5.681   3.602  0.1248 -0.1616  0.3919
   55DOPC  H18R 7541   2.183   5.659   3.516  0.3494 -2.8165  0.7906
   55DOPC  H18S 7542   2.244   5.595   3.673 -0.7544 -0.0442  0.4601
   55DOPC  H18T 7543   2.354   5.690   3.562  0.5141  2.0297  1.7477
   55DOPC   C33 7544   2.068   6.344   4.584 -0.7160  0.3965  0.6709
   55DOPC   H3X 7545   2.011   6.251   4.560 -0.4814 -0.4740  3.1553
   55DOPC   H3Y 7546   2.177   6.321   4.582 -0.5600  1.1552 -1.4481
   55DOPC   C34 7547   2.042   6.448   4.471 -0.3245 -0.1131 -0.2188
   55DOPC   H4X 7548   2.055   6.553   4.503 -0.2550  0.6733 -2.6062
   55DOPC   H4Y 7549   1.940   6.432   4.429 -0.2927 -3.5062  0.7022
   55DOPC   C35 7550   2.136   6.436   4.337  0.4560 -0.7153  0.0243
   55DOPC   H5X 7551   2.137   6.333   4.294  0.4126 -0.2411 -1.1294
   55DOPC   H5Y 7552   2.237   6.478   4.357  0.2134 -0.4384  0.7113
   55DOPC   C36 7553   2.075   6.523   4.225  0.3524 -0.0768  0.4274
   55DOPC   H6X 7554   1.977   6.474   4.207  0.3506 -0.3509  1.1350
   55DOPC   H6Y 7555   2.054   6.625   4.264 -0.3663  0.0471 -0.2594
   55DOPC   C37 7556   2.170   6.528   4.101 -0.0665  0.3914 -0.0417
   55DOPC   H7X 7557   2.151   6.617   4.038 -3.2367  0.2895  0.6043
   55DOPC   H7Y 7558   2.268   6.558   4.143 -0.8462  0.2521  1.9882
   55DOPC   C38 7559   2.187   6.398   4.019  0.0822 -0.3497  0.0305
   55DOPC   H8X 7560   2.189   6.307   4.083  0.2215 -0.8537 -0.6858
   55DOPC   H8Y 7561   2.287   6.401   3.970 -0.5213 -0.5264 -1.2269
   55DOPC   C39 7562   2.075   6.367   3.921  0.0789  0.1670 -0.1030
   55DOPC   H9X 7563   1.978   6.340   3.965  0.1877 -0.0623 -0.0012
   55DOPC  C310 7564   2.092   6.367   3.785 -0.3306 -0.0249  0.7922
   55DOPC  H10X 7565   2.007   6.354   3.716 -0.2876  3.3507 -0.0613
   55DOPC  C311 7566   2.219   6.407   3.709 -0.4128  0.2025  0.3560
   55DOPC  H11X 7567   2.304   6.444   3.770  1.8912 -3.1802 -0.4914
   55DOPC  H11Y 7568   2.197   6.485   3.633 -0.7454 -0.3493 -0.1191
   55DOPC  C312 7569   2.274   6.291   3.614 -0.6587  0.0124 -0.1138
   55DOPC  H12X 7570   2.199   6.234   3.555  1.3978 -0.7124 -2.1561
   55DOPC  H12Y 7571   2.328   6.224   3.684  1.8122  1.5519 -0.4288
   55DOPC  C313 7572   2.388   6.347   3.521  0.2532  0.3922 -0.6621
   55DOPC  H13X 7573   2.459   6.399   3.588  0.8257  0.8976 -1.6298
   55DOPC  H13Y 7574   2.438   6.271   3.457  1.1688 -1.2413  1.8663
   55DOPC  C314 7575   2.328   6.442   3.413 -0.1128 -0.5052 -0.4756
   55DOPC  H14X 7576   2.355   6.396   3.315 -0.7217 -0.5318 -0.6380
   55DOPC  H14Y 7577   2.218   6.460   3.406  0.3578  3.3787  0.0157
   55DOPC  C315 7578   2.407   6.575   3.427 -0.0389 -0.2270 -0.2131
   55DOPC  H15X 7579   2.514   6.566   3.397  0.4278  2.2496  0.4792
   55DOPC  H15Y 7580   2.390   6.617   3.528 -3.5946 -1.9927  0.0700
   55DOPC  C316 7581   2.364   6.692   3.334  0.6180  0.6025 -0.3151
   55DOPC  H16X 7582   2.353   6.645   3.234 -1.5475 -0.1044  0.1948
   55DOPC  H16Y 7583   2.265   6.733   3.364  1.0238  1.2591  0.1470
   55DOPC  C317 7584   2.463   6.804   3.332 -0.9971  0.2261 -0.4492
   55DOPC  H17X 7585   2.454   6.857   3.430  0.6860  0.3754 -0.3524
   55DOPC  H17Y 7586   2.566   6.765   3.319 -1.1639 -0.2224 -0.4278
   55DOPC  C318 7587   2.440   6.905   3.218 -0.2185 -0.2876 -0.3842
   55DOPC  H18X 7588   2.427   6.846   3.125 -0.2549  1.3473 -1.4395
   55DOPC  H18Y 7589   2.340   6.951   3.229 -0.8608 -1.3650 -1.5243
   55DOPC  H18Z 7590   2.519   6.983   3.223 -1.2105  0.7555 -0.5945
   56DOPC     N 7591   3.637   5.850   5.278  0.3659  0.0175  1.0091
   56DOPC   C12 7592   3.610   5.758   5.166 -0.7041  0.0080  0.0986
   56DOPC  H12A 7593   3.701   5.711   5.132 -0.1215  2.1655 -1.5703
   56DOPC  H12B 7594   3.575   5.824   5.088 -0.5621 -1.1926 -0.9998
   56DOPC   C13 7595   3.685   5.785   5.403 -0.1495 -0.5385  0.3593
   56DOPC  H13A 7596   3.614   5.718   5.449 -0.0550 -0.6138  0.3974
   56DOPC  H13B 7597   3.780   5.738   5.382  1.8630  2.9882  0.6972
   56DOPC  H13C 7598   3.701   5.865   5.475 -2.0550 -0.2386  0.4929
   56DOPC   C14 7599   3.514   5.936   5.309  0.4210 -0.6524 -0.1668
   56DOPC  H14A 7600   3.435   5.862   5.305  0.8582 -1.0633 -1.4669
   56DOPC  H14B 7601   3.516   5.984   5.406 -0.6218  0.2799 -0.5840
   56DOPC  H14C 7602   3.492   6.017   5.240  1.2174 -0.8131 -0.6219
   56DOPC   C15 7603   3.746   5.951   5.243 -0.8236 -0.9702  0.4914
   56DOPC  H15A 7604   3.759   6.026   5.319  0.6729 -1.4688  0.7620
   56DOPC  H15B 7605   3.712   5.989   5.148 -1.0390 -0.7277  0.6658
   56DOPC  H15C 7606   3.842   5.912   5.212 -0.8395  0.3268 -1.3181
   56DOPC   C11 7607   3.501   5.642   5.188 -0.4114  0.0119 -0.1073
   56DOPC  H11A 7608   3.506   5.574   5.101 -0.3013 -0.4937  0.2943
   56DOPC  H11B 7609   3.526   5.578   5.275 -1.6228  1.9068  1.7386
   56DOPC     P 7610   3.237   5.638   5.154  0.0028 -0.2358 -0.1677
   56DOPC   O13 7611   3.141   5.746   5.114 -0.5139 -0.0578  0.3988
   56DOPC   O14 7612   3.193   5.540   5.250 -0.9747 -0.0045 -0.5480
   56DOPC   O12 7613   3.372   5.693   5.205 -0.0602  0.2098  0.2838
   56DOPC   O11 7614   3.281   5.557   5.029  0.2948  0.2222  0.2496
   56DOPC    C1 7615   3.318   5.623   4.906  0.1529  0.1717 -0.2716
   56DOPC    HA 7616   3.422   5.588   4.888  0.0254  0.0115 -0.7060
   56DOPC    HB 7617   3.313   5.733   4.918 -2.5426 -0.0039  0.9985
   56DOPC    C2 7618   3.234   5.577   4.788  0.1628  0.0314 -0.0219
   56DOPC    HS 7619   3.245   5.467   4.792 -0.1267  0.0255  0.7573
   56DOPC   O21 7620   3.302   5.635   4.673 -0.3422 -0.0053  0.3721
   56DOPC   C21 7621   3.253   5.578   4.561 -0.0020  0.2836  0.0128
   56DOPC   O22 7622   3.173   5.487   4.556  0.4157 -0.5071  0.1935
   56DOPC   C22 7623   3.333   5.632   4.437 -0.0408 -0.3490  0.1557
   56DOPC   H2R 7624   3.426   5.570   4.433  0.5533  0.4981  0.6622
   56DOPC   H2S 7625   3.367   5.736   4.454 -0.3803  0.2501 -2.3374
   56DOPC    C3 7626   3.090   5.611   4.802  0.0344  0.7703 -0.1249
   56DOPC    HX 7627   3.070   5.579   4.907 -0.3479 -0.7488 -0.6270
   56DOPC    HY 7628   3.029   5.545   4.737 -0.9462 -0.4429  1.9231
   56DOPC   O31 7629   3.053   5.749   4.779 -0.2161  0.3738  0.4807
   56DOPC   C31 7630   2.948   5.792   4.843  0.0127  0.5696  0.2166
   56DOPC   O32 7631   2.870   5.728   4.908  0.0024  0.1227 -0.0416
   56DOPC   C32 7632   2.924   5.939   4.820 -0.5413  0.0589 -0.0507
   56DOPC   H2X 7633   2.884   5.978   4.916  0.1378 -0.8470  0.6180
   56DOPC   H2Y 7634   3.020   5.994   4.808 -0.5593 -0.0405 -0.6439
   56DOPC   C23 7635   3.242   5.626   4.312 -0.0450  0.4574  0.0410
   56DOPC   H3R 7636   3.288   5.702   4.246  1.9327 -0.6787  0.0312
   56DOPC   H3S 7637   3.141   5.669   4.331 -0.1808 -0.1672  0.8196
   56DOPC   C24 7638   3.241   5.479   4.253  0.4929 -0.7141  0.2527
   56DOPC   H4R 7639   3.216   5.411   4.338 -1.4664 -0.0301  0.2915
   56DOPC   H4S 7640   3.347   5.463   4.226  0.3618 -1.7776  0.3321
   56DOPC   C25 7641   3.154   5.473   4.131  0.4982  0.5887 -0.4695
   56DOPC   H5R 7642   3.056   5.524   4.144  1.1933  1.7044  0.7253
   56DOPC   H5S 7643   3.136   5.366   4.108 -0.7185  0.4289  1.0495
   56DOPC   C26 7644   3.226   5.516   3.997  0.0878 -0.3333  0.8357
   56DOPC   H6R 7645   3.236   5.627   4.001 -1.6968 -0.1324  1.0319
   56DOPC   H6S 7646   3.160   5.491   3.912  1.7501 -1.0140 -0.2870
   56DOPC   C27 7647   3.356   5.444   3.969 -0.8235 -0.1655  0.3480
   56DOPC   H7R 7648   3.434   5.475   4.041 -0.8385 -1.0639  0.7635
   56DOPC   H7S 7649   3.389   5.486   3.871  0.3083 -3.0539 -0.5964
   56DOPC   C28 7650   3.350   5.294   3.960 -0.3552  0.0633  0.0597
   56DOPC   H8R 7651   3.261   5.256   3.905 -0.7585 -0.1345  0.8386
   56DOPC   H8S 7652   3.328   5.257   4.062 -2.6011 -0.6250 -0.6263
   56DOPC   C29 7653   3.485   5.246   3.906  0.1955 -0.9949 -0.4125
   56DOPC   H9R 7654   3.569   5.263   3.975 -0.9411  0.1863  0.7413
   56DOPC  C210 7655   3.506   5.199   3.783  0.1712 -0.1979  0.3838
   56DOPC  H10R 7656   3.608   5.162   3.763  0.9887  1.4611  1.2814
   56DOPC  C211 7657   3.411   5.173   3.677  0.4274 -0.1355 -0.4178
   56DOPC  H11R 7658   3.451   5.205   3.578 -1.2826  1.8465 -0.5465
   56DOPC  H11S 7659   3.318   5.235   3.674  0.7457  0.3938  0.3877
   56DOPC  C212 7660   3.353   5.029   3.671 -0.5958 -0.3852 -0.4744
   56DOPC  H12R 7661   3.264   5.037   3.605 -0.7345 -0.2286 -0.2728
   56DOPC  H12S 7662   3.320   4.999   3.773  3.4074  0.2534  1.2074
   56DOPC  C213 7663   3.458   4.924   3.630 -0.2779 -0.3538  0.2365
   56DOPC  H13R 7664   3.536   4.915   3.708  1.8735  0.3630 -1.7041
   56DOPC  H13S 7665   3.508   4.958   3.537 -1.9990 -1.9546 -1.3731
   56DOPC  C214 7666   3.404   4.784   3.617 -0.3310  0.6684  0.9542
   56DOPC  H14R 7667   3.334   4.775   3.703 -2.0892 -0.2384 -0.4980
   56DOPC  H14S 7668   3.480   4.709   3.647 -2.3090 -1.5371  0.7256
   56DOPC  C215 7669   3.332   4.764   3.487  0.3278  0.0267 -0.1366
   56DOPC  H15R 7670   3.406   4.779   3.406 -1.9119  0.8617 -2.1366
   56DOPC  H15S 7671   3.258   4.846   3.471 -0.2517 -1.0679 -4.2580
   56DOPC  C216 7672   3.266   4.624   3.457  0.8601  0.4389  0.8657
   56DOPC  H16R 7673   3.202   4.591   3.542  0.5503 -2.7755 -0.4598
   56DOPC  H16S 7674   3.352   4.560   3.429  0.8534  0.3633  1.0180
   56DOPC  C217 7675   3.184   4.625   3.322 -0.0876 -0.1788 -0.1387
   56DOPC  H17R 7676   3.114   4.711   3.329  1.9041  1.3794  3.5201
   56DOPC  H17S 7677   3.131   4.529   3.305 -0.7239  0.5496 -2.6814
   56DOPC  C218 7678   3.250   4.657   3.187 -0.1068  0.0365 -0.1644
   56DOPC  H18R 7679   3.309   4.751   3.186 -0.2986  0.1545 -0.5044
   56DOPC  H18S 7680   3.175   4.658   3.105 -1.1758  0.9223  0.8114
   56DOPC  H18T 7681   3.324   4.578   3.161  1.9656  0.8668  2.6778
   56DOPC   C33 7682   2.839   5.968   4.703 -0.1526  0.2310  0.0178
   56DOPC   H3X 7683   2.786   6.066   4.704 -0.6757 -0.0271 -0.9019
   56DOPC   H3Y 7684   2.767   5.883   4.697 -0.9739  1.0025 -2.2381
   56DOPC   C34 7685   2.916   5.955   4.574 -0.0478 -0.1792 -0.4216
   56DOPC   H4X 7686   2.845   5.943   4.489  0.7063 -3.5950 -0.7250
   56DOPC   H4Y 7687   2.964   5.855   4.573 -0.7209 -0.5199  0.0477
   56DOPC   C35 7688   3.013   6.070   4.538 -0.5343 -0.1478  0.2717
   56DOPC   H5X 7689   3.114   6.028   4.556 -0.0212 -0.5422 -2.9616
   56DOPC   H5Y 7690   3.006   6.151   4.614  0.0255  0.2543 -0.1019
   56DOPC   C36 7691   2.996   6.110   4.392 -0.2671  0.5757 -0.3092
   56DOPC   H6X 7692   2.895   6.148   4.368 -0.8793 -0.3324  0.7409
   56DOPC   H6Y 7693   3.057   6.198   4.363 -0.1269  0.5766 -0.0102
   56DOPC   C37 7694   3.039   6.005   4.288 -0.1778 -0.2482 -0.5953
   56DOPC   H7X 7695   3.148   5.986   4.300 -0.1643  0.2782  0.1178
   56DOPC   H7Y 7696   2.989   5.907   4.306  0.5377 -0.3777  0.8036
   56DOPC   C38 7697   3.024   6.055   4.138  0.6820 -0.6218 -0.6850
   56DOPC   H8X 7698   3.092   6.142   4.139 -0.0451  0.0690  2.6083
   56DOPC   H8Y 7699   2.921   6.094   4.125  0.2797 -0.7380  1.6233
   56DOPC   C39 7700   3.055   5.964   4.028  0.0370  0.0046  0.1800
   56DOPC   H9X 7701   2.969   5.897   4.012 -0.5308  0.6019  0.6516
   56DOPC  C310 7702   3.170   5.951   3.962  0.6463 -0.2525  0.6935
   56DOPC  H10X 7703   3.181   5.874   3.884  0.3543 -0.3927  0.7873
   56DOPC  C311 7704   3.291   6.041   3.978 -0.8614  0.0643  0.5664
   56DOPC  H11X 7705   3.275   6.118   4.057 -1.2654 -0.3921  0.9367
   56DOPC  H11Y 7706   3.309   6.091   3.880 -2.5209  0.2750  0.3481
   56DOPC  C312 7707   3.431   5.967   4.011  0.2408  0.8718  0.1725
   56DOPC  H12X 7708   3.412   5.904   4.101  0.6284  0.9690  0.3230
   56DOPC  H12Y 7709   3.511   6.041   4.034 -0.8873  1.9596  0.7566
   56DOPC  C313 7710   3.473   5.877   3.891  0.6547 -0.3607 -0.2251
   56DOPC  H13X 7711   3.394   5.801   3.874 -0.3769  1.1210 -2.5587
   56DOPC  H13Y 7712   3.480   5.934   3.796  1.1476 -0.0930 -0.0284
   56DOPC  C314 7713   3.602   5.802   3.921  0.1172 -0.6705 -0.6390
   56DOPC  H14X 7714   3.691   5.869   3.919  0.1727 -0.7537 -1.9163
   56DOPC  H14Y 7715   3.603   5.732   4.007  1.8670 -1.7169 -1.4373
   56DOPC  C315 7716   3.626   5.702   3.803  0.4959 -1.0524 -0.4461
   56DOPC  H15X 7717   3.612   5.762   3.711 -0.0622 -1.5225 -0.6753
   56DOPC  H15Y 7718   3.550   5.621   3.799 -0.0940 -0.5308 -0.0322
   56DOPC  C316 7719   3.768   5.638   3.817  0.1093  0.5279 -0.3860
   56DOPC  H16X 7720   3.846   5.716   3.827  0.4971  0.1739 -0.6029
   56DOPC  H16Y 7721   3.769   5.574   3.908 -1.7934  0.9130 -0.0422
   56DOPC  C317 7722   3.805   5.542   3.705  0.3568  0.1929 -0.3483
   56DOPC  H17X 7723   3.754   5.445   3.727  0.5514  0.2281  0.2836
   56DOPC  H17Y 7724   3.772   5.580   3.606 -0.9271  0.3173  0.1031
   56DOPC  C318 7725   3.952   5.509   3.709 -0.4293 -0.6649  0.0839
   56DOPC  H18X 7726   3.973   5.432   3.631 -0.0467 -1.5707  1.0634
   56DOPC  H18Y 7727   4.023   5.591   3.683  0.2039 -1.6899 -1.6505
   56DOPC  H18Z 7728   4.000   5.468   3.800  1.2973  1.8820  0.4433
   57DOPC     N 7729   2.391   2.461   4.985  0.1533 -1.0423 -0.0617
   57DOPC   C12 7730   2.502   2.401   4.916 -0.6300  0.7518  0.2498
   57DOPC  H12A 7731   2.480   2.375   4.814  1.4174 -1.4703  0.2736
   57DOPC  H12B 7732   2.528   2.309   4.966 -2.7838 -1.2443 -2.0564
   57DOPC   C13 7733   2.275   2.365   4.976  1.1473 -0.2622 -0.1103
   57DOPC  H13A 7734   2.300   2.273   5.027 -2.0276 -0.4364  1.3334
   57DOPC  H13B 7735   2.187   2.406   5.023  1.2751  0.5932 -0.6014
   57DOPC  H13C 7736   2.250   2.346   4.873  1.7527  0.2823 -0.3680
   57DOPC   C14 7737   2.347   2.590   4.915 -0.2141 -1.0459 -0.0041
   57DOPC  H14A 7738   2.346   2.583   4.807 -2.8153 -0.7995 -0.0597
   57DOPC  H14B 7739   2.244   2.613   4.938 -0.0934  0.4311 -0.8498
   57DOPC  H14C 7740   2.411   2.673   4.940  3.4441 -3.5784 -0.1990
   57DOPC   C15 7741   2.405   2.503   5.130 -0.2895 -0.5287 -0.0971
   57DOPC  H15A 7742   2.317   2.546   5.176  1.0056 -1.2397  3.2860
   57DOPC  H15B 7743   2.477   2.583   5.141  0.1894 -0.6657 -1.9437
   57DOPC  H15C 7744   2.450   2.425   5.189  3.2890  1.0030 -0.5734
   57DOPC   C11 7745   2.638   2.471   4.908  0.1536 -0.1131 -0.4924
   57DOPC  H11A 7746   2.710   2.399   4.864  0.0744  0.6176 -1.8918
   57DOPC  H11B 7747   2.629   2.557   4.838  0.2730 -0.0663 -0.4500
   57DOPC     P 7748   2.825   2.535   5.079 -0.4809 -0.3988 -0.5315
   57DOPC   O13 7749   2.873   2.413   5.154  0.3638  0.0337 -0.0830
   57DOPC   O14 7750   2.832   2.665   5.154 -0.1004  0.2529 -0.5011
   57DOPC   O12 7751   2.678   2.506   5.034 -0.0525 -0.7952  0.1916
   57DOPC   O11 7752   2.913   2.555   4.954  0.7628  0.0928 -0.8601
   57DOPC    C1 7753   2.887   2.663   4.864 -0.2975  0.5563 -0.4409
   57DOPC    HA 7754   2.940   2.759   4.881  0.9110  0.2839 -2.3783
   57DOPC    HB 7755   2.780   2.689   4.852 -0.7396 -1.3995 -1.2072
   57DOPC    C2 7756   2.945   2.627   4.716  0.1573 -0.1498 -0.5620
   57DOPC    HS 7757   3.055   2.637   4.721  0.0515  1.0343  4.0610
   57DOPC   O21 7758   2.873   2.716   4.628  0.5158 -0.1482  0.3404
   57DOPC   C21 7759   2.893   2.844   4.634 -1.1042  0.5278  0.9403
   57DOPC   O22 7760   2.985   2.900   4.690 -0.4111 -0.2037  0.0590
   57DOPC   C22 7761   2.779   2.922   4.574 -0.2911  0.1456  0.3763
   57DOPC   H2R 7762   2.688   2.909   4.637 -0.8086  0.0010 -0.3912
   57DOPC   H2S 7763   2.771   2.883   4.470  0.2965  0.7615  0.0900
   57DOPC    C3 7764   2.919   2.483   4.679 -0.5217 -0.5378  0.1189
   57DOPC    HX 7765   2.815   2.448   4.694 -0.2767 -1.2001  0.3010
   57DOPC    HY 7766   2.966   2.422   4.759  1.2859 -1.7506 -1.7687
   57DOPC   O31 7767   2.985   2.449   4.556  0.0042  0.3869  0.4967
   57DOPC   C31 7768   2.901   2.414   4.456 -0.5674  0.6408  0.5758
   57DOPC   O32 7769   2.780   2.416   4.463 -0.0786  0.4014  0.9621
   57DOPC   C32 7770   2.975   2.357   4.336 -0.3824 -0.0427  0.3057
   57DOPC   H2X 7771   3.058   2.293   4.375 -1.4968  0.1081  3.1891
   57DOPC   H2Y 7772   2.908   2.290   4.278  0.3556 -1.5684  1.1522
   57DOPC   C23 7773   2.811   3.077   4.563  0.8293 -0.6123 -0.5523
   57DOPC   H3R 7774   2.830   3.109   4.668 -1.8920 -2.4345  0.6138
   57DOPC   H3S 7775   2.720   3.127   4.523  0.9131  0.1746  0.1987
   57DOPC   C24 7776   2.922   3.118   4.464 -0.0426 -0.3267 -0.0095
   57DOPC   H4R 7777   2.901   3.080   4.362 -0.0540 -0.2454 -0.0381
   57DOPC   H4S 7778   3.022   3.077   4.491  0.9268  2.1273  0.4440
   57DOPC   C25 7779   2.940   3.271   4.448 -0.6907  0.5342 -0.3237
   57DOPC   H5R 7780   3.032   3.292   4.389 -0.8287  1.3753 -0.2483
   57DOPC   H5S 7781   2.979   3.304   4.547  0.2129  1.1904 -0.8776
   57DOPC   C26 7782   2.828   3.353   4.390  0.4177 -0.5232  0.0970
   57DOPC   H6R 7783   2.740   3.351   4.459 -0.1248 -1.8237 -0.6048
   57DOPC   H6S 7784   2.793   3.315   4.292 -2.0039  1.3465  0.1296
   57DOPC   C27 7785   2.870   3.502   4.374  0.4386 -0.6062  1.0013
   57DOPC   H7R 7786   2.965   3.504   4.317  0.6676 -0.5080  1.3850
   57DOPC   H7S 7787   2.881   3.547   4.475 -2.3134  1.9645  0.2989
   57DOPC   C28 7788   2.759   3.591   4.322 -0.2768  0.6964  0.4793
   57DOPC   H8R 7789   2.685   3.588   4.405  1.4967  1.5502  2.1646
   57DOPC   H8S 7790   2.713   3.546   4.232 -1.6435  1.1053  0.9412
   57DOPC   C29 7791   2.791   3.737   4.307  0.2061  0.5663  0.5377
   57DOPC   H9R 7792   2.854   3.783   4.385  0.1791  0.9693  0.3281
   57DOPC  C210 7793   2.761   3.814   4.202 -0.1684 -0.2976 -0.4254
   57DOPC  H10R 7794   2.804   3.915   4.205  0.3781 -0.5341  2.6685
   57DOPC  C211 7795   2.676   3.781   4.080  0.5524 -0.0361 -0.6771
   57DOPC  H11R 7796   2.644   3.675   4.076 -2.0214  0.6833 -0.7986
   57DOPC  H11S 7797   2.734   3.808   3.989 -1.6594  2.9466 -1.3430
   57DOPC  C212 7798   2.552   3.869   4.080  0.2298 -0.7012  0.7325
   57DOPC  H12R 7799   2.521   3.883   3.974  0.1402  2.1027  1.0499
   57DOPC  H12S 7800   2.567   3.973   4.118 -3.3559 -0.5114  2.0289
   57DOPC  C213 7801   2.431   3.810   4.158  0.1894 -0.5505  0.3541
   57DOPC  H13R 7802   2.437   3.857   4.259 -0.5170  1.1050 -0.3413
   57DOPC  H13S 7803   2.443   3.699   4.162 -1.4727 -0.7953 -0.7400
   57DOPC  C214 7804   2.298   3.848   4.091 -0.6962 -0.6927 -0.4322
   57DOPC  H14R 7805   2.311   3.844   3.981 -0.7828  0.7410 -0.5029
   57DOPC  H14S 7806   2.273   3.955   4.109  2.9634  0.2253 -0.1855
   57DOPC  C215 7807   2.188   3.749   4.133  0.5461  0.5280 -0.9215
   57DOPC  H15R 7808   2.221   3.648   4.100 -0.6457 -0.6242  1.2395
   57DOPC  H15S 7809   2.092   3.783   4.090 -0.5867 -0.6431  0.5561
   57DOPC  C216 7810   2.174   3.722   4.288 -0.0156  0.3160 -0.0211
   57DOPC  H16R 7811   2.191   3.805   4.360 -2.6271 -0.5761  1.7521
   57DOPC  H16S 7812   2.254   3.654   4.324  1.0025  1.4938 -0.0123
   57DOPC  C217 7813   2.042   3.656   4.324 -0.1159  0.0187  0.2836
   57DOPC  H17R 7814   2.037   3.555   4.279  0.5727 -0.1261  0.5219
   57DOPC  H17S 7815   1.970   3.721   4.270 -0.8586 -2.3722 -1.7964
   57DOPC  C218 7816   2.010   3.661   4.478  1.2212  0.0120  0.3209
   57DOPC  H18R 7817   1.975   3.766   4.488  1.6343  0.0789  1.1506
   57DOPC  H18S 7818   2.104   3.662   4.537  0.8983  0.7167  0.8390
   57DOPC  H18T 7819   1.939   3.588   4.520 -0.5209  2.2709  1.5566
   57DOPC   C33 7820   3.022   2.464   4.232  0.6041 -0.2149  0.1361
   57DOPC   H3X 7821   3.090   2.530   4.289 -0.1384 -1.0177  2.0401
   57DOPC   H3Y 7822   2.939   2.521   4.186  2.1741  0.4589 -1.9923
   57DOPC   C34 7823   3.104   2.396   4.122  0.0139 -0.1650  0.4989
   57DOPC   H4X 7824   3.035   2.336   4.059 -0.4432  0.3286  0.5165
   57DOPC   H4Y 7825   3.184   2.335   4.169  0.5655  0.7482  0.7892
   57DOPC   C35 7826   3.175   2.493   4.024 -0.2268  0.4030 -0.6749
   57DOPC   H5X 7827   3.222   2.582   4.070 -0.3056  0.2352 -0.2615
   57DOPC   H5Y 7828   3.100   2.542   3.959 -1.8731 -1.5272 -0.3473
   57DOPC   C36 7829   3.278   2.428   3.929  0.8668  0.3671 -0.0231
   57DOPC   H6X 7830   3.227   2.358   3.859  2.2935 -0.5167 -0.2251
   57DOPC   H6Y 7831   3.317   2.519   3.879  2.0087 -0.4476 -0.6817
   57DOPC   C37 7832   3.397   2.355   3.994 -0.3498 -0.4443  0.1008
   57DOPC   H7X 7833   3.436   2.428   4.068 -0.2571 -1.0985  0.7022
   57DOPC   H7Y 7834   3.364   2.271   4.059  0.4397  0.1888  1.3554
   57DOPC   C38 7835   3.495   2.309   3.895 -0.1209  0.3768  0.3650
   57DOPC   H8X 7836   3.539   2.401   3.851 -2.1215  0.9095 -0.6402
   57DOPC   H8Y 7837   3.442   2.263   3.809 -0.1866  0.9845  0.0743
   57DOPC   C39 7838   3.602   2.223   3.952 -0.1673  0.2474  0.4899
   57DOPC   H9X 7839   3.636   2.271   4.045 -1.0557  0.0217  0.9368
   57DOPC  C310 7840   3.661   2.114   3.903 -0.4060 -0.6606 -0.6630
   57DOPC  H10X 7841   3.748   2.078   3.959  0.6534 -0.6805 -2.2630
   57DOPC  C311 7842   3.607   2.022   3.795 -0.4351 -0.6171  0.1328
   57DOPC  H11X 7843   3.676   2.053   3.714 -0.5450  1.3641  0.7425
   57DOPC  H11Y 7844   3.509   2.051   3.752  0.4707  0.2307 -1.4654
   57DOPC  C312 7845   3.602   1.871   3.826 -0.9451 -0.0595  0.2277
   57DOPC  H12X 7846   3.560   1.812   3.741 -0.3228  1.3180 -1.0832
   57DOPC  H12Y 7847   3.543   1.845   3.916 -0.5835  0.4569  0.6179
   57DOPC  C313 7848   3.749   1.812   3.845 -0.2598 -0.3797 -0.2544
   57DOPC  H13X 7849   3.800   1.822   3.747  1.1775 -2.4583  0.2088
   57DOPC  H13Y 7850   3.814   1.865   3.918 -1.6897 -0.7699  1.3720
   57DOPC  C314 7851   3.743   1.662   3.880 -0.4630  0.5087 -0.7140
   57DOPC  H14X 7852   3.693   1.648   3.979 -1.3287 -2.9766 -1.5062
   57DOPC  H14Y 7853   3.672   1.623   3.804 -2.1459 -0.2088  1.1443
   57DOPC  C315 7854   3.867   1.576   3.867 -0.6869  0.1533 -0.2842
   57DOPC  H15X 7855   3.941   1.618   3.939 -0.6214 -1.1819  0.4579
   57DOPC  H15Y 7856   3.905   1.590   3.764 -0.4922  2.1439  0.0252
   57DOPC  C316 7857   3.845   1.426   3.895  0.8072  0.2179 -0.1029
   57DOPC  H16X 7858   3.788   1.382   3.810  0.5457  1.6396 -0.6954
   57DOPC  H16Y 7859   3.948   1.386   3.890  0.2563 -1.1837 -1.0593
   57DOPC  C317 7860   3.799   1.399   4.041 -0.0869 -0.0790 -0.1918
   57DOPC  H17X 7861   3.863   1.444   4.120  1.4720 -1.1782 -0.7645
   57DOPC  H17Y 7862   3.701   1.449   4.030  0.9509  1.5894 -2.7259
   57DOPC  C318 7863   3.799   1.245   4.086 -0.1324 -0.1272 -0.3322
   57DOPC  H18X 7864   3.750   1.174   4.017 -0.8033 -1.5172  1.4720
   57DOPC  H18Y 7865   3.900   1.210   4.115 -0.4765  0.0538  1.1926
   57DOPC  H18Z 7866   3.737   1.238   4.178  0.2283 -0.5300 -0.1172
   58DOPC     N 7867   6.702   3.020   5.305  0.2491  0.1228 -0.9051
   58DOPC   C12 7868   6.563   3.029   5.236 -0.1593  0.4693  0.6163
   58DOPC  H12A 7869   6.524   3.126   5.262  0.7946  0.4726  2.1588
   58DOPC  H12B 7870   6.498   2.955   5.280  1.6881 -3.0234 -2.0454
   58DOPC   C13 7871   6.787   3.135   5.288  0.6773 -1.4747  0.0395
   58DOPC  H13A 7872   6.882   3.109   5.331  0.8233 -0.7901  0.1382
   58DOPC  H13B 7873   6.797   3.150   5.182 -2.4973 -0.1826 -0.1942
   58DOPC  H13C 7874   6.745   3.227   5.326  2.1787  0.7511 -3.2119
   58DOPC   C14 7875   6.769   2.891   5.271 -0.1858  0.0531  0.2079
   58DOPC  H14A 7876   6.870   2.901   5.306 -1.1174  0.4232  3.1563
   58DOPC  H14B 7877   6.721   2.802   5.310 -0.5654 -0.0918 -0.5718
   58DOPC  H14C 7878   6.765   2.873   5.165 -0.3050  0.0011  0.2208
   58DOPC   C15 7879   6.685   3.015   5.453 -0.0439 -0.6004 -0.6925
   58DOPC  H15A 7880   6.649   3.111   5.486  2.2741  0.4563 -0.9689
   58DOPC  H15B 7881   6.781   3.002   5.502 -1.0583 -1.1819  1.2157
   58DOPC  H15C 7882   6.621   2.936   5.486 -1.1308  1.5754  2.9899
   58DOPC   C11 7883   6.557   3.026   5.078 -0.1978  0.3437  0.1290
   58DOPC  H11A 7884   6.620   2.943   5.039  1.6122  0.5234  2.3980
   58DOPC  H11B 7885   6.453   3.007   5.046 -1.0282  3.6010  0.5086
   58DOPC     P 7886   6.509   3.268   4.970 -0.3042  0.2242 -0.0955
   58DOPC   O13 7887   6.590   3.383   4.948  0.0543  0.0935  0.3161
   58DOPC   O14 7888   6.400   3.273   5.070  0.2541 -0.1918 -0.7778
   58DOPC   O12 7889   6.595   3.148   5.018 -0.4277  0.3775 -0.0477
   58DOPC   O11 7890   6.453   3.219   4.831  0.1797 -1.1035  0.2778
   58DOPC    C1 7891   6.499   3.109   4.756  0.1178 -0.3882 -0.1794
   58DOPC    HA 7892   6.416   3.074   4.691 -0.2850 -0.7237  0.5029
   58DOPC    HB 7893   6.519   3.021   4.820 -1.8827  0.0284  1.1095
   58DOPC    C2 7894   6.606   3.151   4.658 -0.5957 -1.3733 -0.0931
   58DOPC    HS 7895   6.687   3.190   4.724 -1.9780  2.6347 -0.4858
   58DOPC   O21 7896   6.546   3.257   4.574 -0.1302 -0.3060 -0.1915
   58DOPC   C21 7897   6.639   3.348   4.530 -0.2812 -0.5061  0.8415
   58DOPC   O22 7898   6.759   3.339   4.557  0.1693 -0.0558 -0.0057
   58DOPC   C22 7899   6.576   3.475   4.466 -0.2130  0.7383 -0.2803
   58DOPC   H2R 7900   6.649   3.555   4.444 -0.6807  1.5723  1.0881
   58DOPC   H2S 7901   6.509   3.513   4.546 -2.2587  1.0432 -2.0432
   58DOPC    C3 7902   6.658   3.029   4.571  0.0900 -0.3518 -0.2346
   58DOPC    HX 7903   6.740   3.053   4.500  1.2766 -0.0782  1.1773
   58DOPC    HY 7904   6.578   2.990   4.504 -0.0930  0.4671 -0.5039
   58DOPC   O31 7905   6.693   2.915   4.650  0.6224 -0.0306 -0.4385
   58DOPC   C31 7906   6.821   2.915   4.684  0.1589  1.0643  0.4302
   58DOPC   O32 7907   6.904   3.000   4.659  0.1266 -0.4559  0.1952
   58DOPC   C32 7908   6.856   2.788   4.771 -0.9074  0.5689 -0.0517
   58DOPC   H2X 7909   6.966   2.803   4.782 -1.2070  2.1159  1.1630
   58DOPC   H2Y 7910   6.802   2.788   4.869 -1.5412  1.0331 -0.3987
   58DOPC   C23 7911   6.493   3.442   4.347  0.1008  0.2327  0.6027
   58DOPC   H3R 7912   6.537   3.363   4.282  1.3195  0.2152  1.4032
   58DOPC   H3S 7913   6.493   3.532   4.282  0.7397 -0.9560 -1.1330
   58DOPC   C24 7914   6.350   3.405   4.371 -0.0531  0.1513  0.3734
   58DOPC   H4R 7915   6.318   3.475   4.451  1.2483  1.1010  0.0851
   58DOPC   H4S 7916   6.339   3.309   4.427  1.6128 -0.1353  0.2581
   58DOPC   C25 7917   6.245   3.415   4.252 -0.5714  0.9629  0.2942
   58DOPC   H5R 7918   6.252   3.510   4.195 -0.0257  0.0069 -1.2845
   58DOPC   H5S 7919   6.147   3.410   4.304  0.2001 -0.2429  1.7154
   58DOPC   C26 7920   6.263   3.301   4.143 -0.0016 -0.5182  0.5263
   58DOPC   H6R 7921   6.248   3.198   4.183 -0.3208 -0.6795 -0.0082
   58DOPC   H6S 7922   6.365   3.307   4.098  0.0103 -1.5561  0.3724
   58DOPC   C27 7923   6.162   3.310   4.030  0.4447 -0.0860 -0.0446
   58DOPC   H7R 7924   6.176   3.409   3.981  0.0995 -0.8714 -1.8270
   58DOPC   H7S 7925   6.063   3.323   4.078  0.3745  0.7634 -0.3913
   58DOPC   C28 7926   6.171   3.201   3.924 -0.5227 -0.0214  0.2450
   58DOPC   H8R 7927   6.086   3.212   3.853 -0.7565 -1.6175  0.2321
   58DOPC   H8S 7928   6.175   3.101   3.974  1.2189  0.0976  0.4038
   58DOPC   C29 7929   6.299   3.198   3.842 -0.2881  0.2110  0.0403
   58DOPC   H9R 7930   6.384   3.135   3.874 -1.0363 -1.0289 -0.3480
   58DOPC  C210 7931   6.318   3.281   3.736 -0.1996 -0.0549 -0.8726
   58DOPC  H10R 7932   6.405   3.272   3.670 -0.5552  1.7484 -1.6380
   58DOPC  C211 7933   6.218   3.376   3.675 -0.6128  0.1842 -0.2992
   58DOPC  H11R 7934   6.136   3.418   3.737 -1.3610 -1.1843 -0.3185
   58DOPC  H11S 7935   6.157   3.324   3.598 -2.1031 -0.0493  0.9868
   58DOPC  C212 7936   6.288   3.499   3.606 -0.0319 -0.1674 -0.3756
   58DOPC  H12R 7937   6.336   3.556   3.688 -1.0294  0.1712 -0.0067
   58DOPC  H12S 7938   6.197   3.550   3.567 -0.3386 -1.5248 -1.5143
   58DOPC  C213 7939   6.381   3.469   3.488 -0.3852  0.1429 -0.1445
   58DOPC  H13R 7940   6.475   3.422   3.526 -0.5274 -0.6293 -0.7203
   58DOPC  H13S 7941   6.408   3.562   3.435  0.2800 -0.2726 -0.5514
   58DOPC  C214 7942   6.317   3.384   3.375  0.4754 -0.0712  0.1931
   58DOPC  H14R 7943   6.249   3.301   3.403 -0.1396 -1.3293 -4.2537
   58DOPC  H14S 7944   6.393   3.332   3.313 -1.0176 -1.7589 -0.2792
   58DOPC  C215 7945   6.241   3.478   3.286 -0.1457 -0.3009 -0.6079
   58DOPC  H15R 7946   6.304   3.557   3.241 -0.4317 -0.7106 -1.7628
   58DOPC  H15S 7947   6.162   3.522   3.351  2.6347  3.2173  0.6589
   58DOPC  C216 7948   6.173   3.395   3.173  0.1246  0.4761  0.2226
   58DOPC  H16R 7949   6.121   3.315   3.228  2.7275 -0.6229  1.2708
   58DOPC  H16S 7950   6.256   3.349   3.115  3.5424  2.6075  3.0308
   58DOPC  C217 7951   6.077   3.473   3.094  0.6048 -0.3711  0.3346
   58DOPC  H17R 7952   6.122   3.548   3.025 -3.4834  0.5878 -1.6344
   58DOPC  H17S 7953   6.013   3.526   3.168  0.1105 -2.5673  1.5576
   58DOPC  C218 7954   5.977   3.386   3.007 -0.4888  0.1586 -0.2689
   58DOPC  H18R 7955   6.039   3.312   2.952  1.1677 -0.5529  2.3576
   58DOPC  H18S 7956   5.918   3.453   2.941  0.0674  0.9787  0.0418
   58DOPC  H18T 7957   5.925   3.322   3.081  2.6628  0.4491  2.4082
   58DOPC   C33 7958   6.809   2.652   4.711  0.9539 -0.8953 -0.1168
   58DOPC   H3X 7959   6.700   2.668   4.718  1.0687 -0.4348  0.7392
   58DOPC   H3Y 7960   6.841   2.575   4.785  0.9076  0.8754  1.8462
   58DOPC   C34 7961   6.846   2.636   4.566 -0.6736 -0.2991  0.3632
   58DOPC   H4X 7962   6.957   2.646   4.556 -0.4297 -1.2694  1.7846
   58DOPC   H4Y 7963   6.803   2.719   4.507  0.8783 -1.1271 -2.0784
   58DOPC   C35 7964   6.788   2.508   4.507  0.0438  0.5218 -0.7057
   58DOPC   H5X 7965   6.691   2.474   4.548  0.7087 -3.6924 -2.1813
   58DOPC   H5Y 7966   6.862   2.435   4.547 -0.2045  0.1219 -0.9704
   58DOPC   C36 7967   6.783   2.507   4.353  0.0095  0.1782 -0.1312
   58DOPC   H6X 7968   6.700   2.565   4.309 -1.8151 -2.7049 -0.7556
   58DOPC   H6Y 7969   6.873   2.558   4.313 -0.5835 -1.6822 -4.3647
   58DOPC   C37 7970   6.774   2.360   4.306  0.2436 -0.5497 -0.0986
   58DOPC   H7X 7971   6.865   2.299   4.327  0.1272 -1.2563 -1.5097
   58DOPC   H7Y 7972   6.683   2.316   4.350  0.1845 -0.0722  0.2631
   58DOPC   C38 7973   6.771   2.357   4.148 -0.3396  0.6957 -0.1075
   58DOPC   H8X 7974   6.784   2.249   4.125  1.4706  0.5330  1.4615
   58DOPC   H8Y 7975   6.858   2.420   4.123  0.9925 -0.7623  0.6776
   58DOPC   C39 7976   6.642   2.404   4.087 -0.0060  0.1266 -0.2261
   58DOPC   H9X 7977   6.638   2.511   4.061 -3.7914  0.2501  0.2826
   58DOPC  C310 7978   6.533   2.331   4.056 -0.3888 -0.1382 -0.1099
   58DOPC  H10X 7979   6.449   2.387   4.012 -0.2769 -0.9145 -1.3858
   58DOPC  C311 7980   6.514   2.180   4.073  0.3051 -0.7711  0.3550
   58DOPC  H11X 7981   6.410   2.153   4.104 -0.7500  1.4088 -1.0798
   58DOPC  H11Y 7982   6.585   2.137   4.148  1.3923  0.5407  0.1116
   58DOPC  C312 7983   6.541   2.112   3.936 -1.1322  0.1797  0.6487
   58DOPC  H12X 7984   6.563   2.004   3.946 -0.5341  0.2232 -0.1716
   58DOPC  H12Y 7985   6.624   2.162   3.882 -1.2549 -0.5332 -0.2184
   58DOPC  C313 7986   6.425   2.122   3.838 -0.2231 -0.1851  0.2599
   58DOPC  H13X 7987   6.342   2.051   3.859 -1.3745  0.2946 -2.2896
   58DOPC  H13Y 7988   6.397   2.229   3.827  3.4168  0.8398 -0.3851
   58DOPC  C314 7989   6.471   2.087   3.692 -0.9096  0.1008  0.7913
   58DOPC  H14X 7990   6.537   2.169   3.657  0.8926 -1.0098  1.4591
   58DOPC  H14Y 7991   6.540   2.000   3.701 -1.6138 -0.4637  0.8316
   58DOPC  C315 7992   6.349   2.059   3.596  0.2539 -0.2689  0.5362
   58DOPC  H15X 7993   6.275   2.142   3.593  0.2895 -0.2336  0.6185
   58DOPC  H15Y 7994   6.299   1.977   3.651 -0.4255 -0.0170  0.3078
   58DOPC  C316 7995   6.389   2.042   3.451  0.3422 -0.0384 -0.6187
   58DOPC  H16X 7996   6.300   2.010   3.392  0.9719  1.2945 -2.3543
   58DOPC  H16Y 7997   6.417   2.144   3.421 -1.2159  0.8991  0.8838
   58DOPC  C317 7998   6.487   1.932   3.418 -0.4638  0.8761 -0.1674
   58DOPC  H17X 7999   6.592   1.949   3.449 -0.5452  0.8414  0.1259
   58DOPC  H17Y 8000   6.446   1.838   3.461  2.2168 -0.3203 -0.0736
   58DOPC  C318 8001   6.492   1.894   3.273 -0.2156 -0.3788 -0.0804
   58DOPC  H18X 8002   6.569   1.814   3.273 -0.0147 -0.2915  2.5096
   58DOPC  H18Y 8003   6.393   1.861   3.237 -1.3354  1.4458  1.1676
   58DOPC  H18Z 8004   6.530   1.982   3.217 -0.1353 -0.0441  0.4917
   59DOPC     N 8005   6.818   6.339   5.547 -0.2805  0.7219 -0.7329
   59DOPC   C12 8006   6.681   6.350   5.617 -0.3400  0.3138 -0.6157
   59DOPC  H12A 8007   6.611   6.409   5.561  0.1477  2.6238  1.0667
   59DOPC  H12B 8008   6.703   6.406   5.706 -0.6107  0.2780 -0.5286
   59DOPC   C13 8009   6.814   6.242   5.428 -0.6310  0.1098 -0.4238
   59DOPC  H13A 8010   6.726   6.248   5.365 -0.8473 -0.3669 -0.1703
   59DOPC  H13B 8011   6.901   6.250   5.365 -0.5937 -0.0498 -0.3929
   59DOPC  H13C 8012   6.819   6.143   5.471  0.0668  0.3359  0.0249
   59DOPC   C14 8013   6.921   6.297   5.644 -0.4113  0.2918 -0.2353
   59DOPC  H14A 8014   6.940   6.365   5.726  2.3388 -1.4921  0.7358
   59DOPC  H14B 8015   6.900   6.207   5.699 -1.0220  0.1881 -0.6307
   59DOPC  H14C 8016   7.020   6.288   5.601  1.3500 -0.8716  3.6704
   59DOPC   C15 8017   6.859   6.479   5.505  0.2704  0.0284  0.2382
   59DOPC  H15A 8018   6.830   6.542   5.588 -1.9270  1.2044 -1.3086
   59DOPC  H15B 8019   6.812   6.502   5.410 -0.1624 -0.9983  0.1937
   59DOPC  H15C 8020   6.964   6.492   5.485  0.3253  1.1967  1.1890
   59DOPC   C11 8021   6.608   6.212   5.650 -0.4981  0.2669 -0.0552
   59DOPC  H11A 8022   6.681   6.139   5.691 -1.6803 -0.3054  1.1135
   59DOPC  H11B 8023   6.541   6.237   5.735 -0.4869 -1.2492  0.4358
   59DOPC     P 8024   6.407   6.229   5.496  0.3872  0.4839  0.4192
   59DOPC   O13 8025   6.427   6.370   5.458  0.9301 -0.0551 -0.7318
   59DOPC   O14 8026   6.299   6.200   5.596 -0.2387 -0.0455  0.1201
   59DOPC   O12 8027   6.540   6.152   5.546  0.1135 -0.3070  0.2292
   59DOPC   O11 8028   6.359   6.149   5.363 -0.6234 -0.5883  0.1584
   59DOPC    C1 8029   6.399   6.014   5.335  0.3239  0.6246 -0.0499
   59DOPC    HA 8030   6.311   5.954   5.301  0.0335  0.8600  0.2754
   59DOPC    HB 8031   6.437   5.965   5.427 -1.1147  0.7075  0.6159
   59DOPC    C2 8032   6.520   6.013   5.239  0.7708 -0.9786 -0.5691
   59DOPC    HS 8033   6.602   6.075   5.281 -0.9102  1.1460 -0.2471
   59DOPC   O21 8034   6.483   6.067   5.110 -0.1433 -0.2654 -0.1923
   59DOPC   C21 8035   6.524   6.196   5.092  0.5468 -0.3524  0.1444
   59DOPC   O22 8036   6.578   6.268   5.176  0.0029 -0.3636 -0.2603
   59DOPC   C22 8037   6.474   6.242   4.956 -0.8645 -0.1711 -0.4863
   59DOPC   H2R 8038   6.363   6.240   4.947 -0.6765 -1.2493 -3.8812
   59DOPC   H2S 8039   6.512   6.159   4.893  1.7066 -0.4453  1.2853
   59DOPC    C3 8040   6.559   5.860   5.221  0.1337 -0.5412 -0.2119
   59DOPC    HX 8041   6.577   5.815   5.321 -2.2882 -0.7737  0.1912
   59DOPC    HY 8042   6.653   5.871   5.163  1.8122  0.1408  2.4706
   59DOPC   O31 8043   6.450   5.785   5.156 -0.3263  0.2807 -0.0040
   59DOPC   C31 8044   6.491   5.670   5.099  0.2596 -0.6264 -0.5221
   59DOPC   O32 8045   6.597   5.612   5.124  0.1259 -0.0730 -0.2951
   59DOPC   C32 8046   6.377   5.611   5.019 -0.0653 -0.1121  0.3419
   59DOPC   H2X 8047   6.408   5.551   4.931 -0.1706  1.5307 -0.8528
   59DOPC   H2Y 8048   6.324   5.540   5.086  0.2989 -0.1937  0.5507
   59DOPC   C23 8049   6.527   6.371   4.919 -0.2196  0.1073  0.1296
   59DOPC   H3R 8050   6.638   6.376   4.924 -0.3054  1.4665  1.9022
   59DOPC   H3S 8051   6.484   6.447   4.988 -0.5902  0.5708 -0.5980
   59DOPC   C24 8052   6.496   6.406   4.777 -0.3141 -0.1278  0.4300
   59DOPC   H4R 8053   6.394   6.451   4.773  0.0116  0.5676 -0.5749
   59DOPC   H4S 8054   6.500   6.315   4.713  2.2162  1.6069 -2.1029
   59DOPC   C25 8055   6.590   6.504   4.712 -0.0539  0.3450  0.0016
   59DOPC   H5R 8056   6.665   6.449   4.651 -1.5982 -1.5351 -0.2837
   59DOPC   H5S 8057   6.648   6.563   4.786  0.1485 -1.2840  1.1861
   59DOPC   C26 8058   6.520   6.599   4.609  0.1384 -0.3655 -0.3287
   59DOPC   H6R 8059   6.470   6.672   4.676  1.2233  0.1934 -0.1024
   59DOPC   H6S 8060   6.448   6.546   4.543  0.4366 -0.1095 -0.8682
   59DOPC   C27 8061   6.615   6.681   4.514 -0.0007 -0.7070 -0.3228
   59DOPC   H7R 8062   6.558   6.750   4.449  0.3943 -0.4239 -0.3784
   59DOPC   H7S 8063   6.665   6.609   4.444 -0.0997  1.1403 -2.4106
   59DOPC   C28 8064   6.732   6.754   4.581 -0.5708  0.0008  0.1317
   59DOPC   H8R 8065   6.800   6.681   4.631 -0.4974  0.0783  0.1452
   59DOPC   H8S 8066   6.689   6.809   4.667 -0.7338 -0.8698  0.6227
   59DOPC   C29 8067   6.789   6.857   4.483 -0.4780  0.2875 -0.1040
   59DOPC   H9R 8068   6.722   6.940   4.455  0.6787  1.3421  0.1593
   59DOPC  C210 8069   6.910   6.845   4.421 -0.1028  0.1188 -1.2578
   59DOPC  H10R 8070   6.929   6.906   4.332 -1.5263 -0.5294 -2.0418
   59DOPC  C211 8071   7.008   6.732   4.437  0.1958 -0.4106  0.3198
   59DOPC  H11R 8072   6.974   6.644   4.496  1.4582 -0.7116  0.6234
   59DOPC  H11S 8073   7.092   6.762   4.504  0.6301 -1.2263  0.1563
   59DOPC  C212 8074   7.044   6.665   4.306 -0.1488  0.2478  0.6960
   59DOPC  H12R 8075   7.100   6.739   4.243  1.4632 -0.7645  0.8674
   59DOPC  H12S 8076   6.951   6.640   4.251  0.0776 -0.4227  0.6049
   59DOPC  C213 8077   7.126   6.538   4.325 -0.3739 -0.8274  0.1606
   59DOPC  H13R 8078   7.078   6.472   4.400 -0.5610  0.1058  0.8794
   59DOPC  H13S 8079   7.217   6.572   4.379 -0.9428  0.3304  0.4105
   59DOPC  C214 8080   7.132   6.461   4.195  0.1991 -0.0787  0.3216
   59DOPC  H14R 8081   7.180   6.515   4.110 -0.2771 -1.1209 -0.6459
   59DOPC  H14S 8082   7.027   6.432   4.172  0.8062 -2.0941 -0.1293
   59DOPC  C215 8083   7.219   6.332   4.209  0.4712 -0.5770  0.4867
   59DOPC  H15R 8084   7.180   6.268   4.291 -1.3256  2.4921  2.2311
   59DOPC  H15S 8085   7.323   6.341   4.248  0.4599 -4.0478  1.6057
   59DOPC  C216 8086   7.226   6.254   4.076 -0.0315 -0.3729 -0.4373
   59DOPC  H16R 8087   7.273   6.314   3.995  0.2004  0.0266 -0.0131
   59DOPC  H16S 8088   7.123   6.236   4.041 -0.7563  1.4521  0.6114
   59DOPC  C217 8089   7.299   6.118   4.107  0.4568  0.5621  0.4309
   59DOPC  H17R 8090   7.307   6.066   4.009 -1.6958  0.6858  0.1221
   59DOPC  H17S 8091   7.236   6.045   4.162  0.7404  1.0735  1.4425
   59DOPC  C218 8092   7.438   6.127   4.172 -0.0683 -0.1976  0.3189
   59DOPC  H18R 8093   7.420   6.157   4.278 -1.4806 -0.4575  0.1688
   59DOPC  H18S 8094   7.494   6.202   4.112 -0.6594  1.0895  1.3404
   59DOPC  H18T 8095   7.496   6.032   4.175  1.7732  0.8904  2.1441
   59DOPC   C33 8096   6.264   5.708   4.966 -0.0775 -0.0809 -0.1348
   59DOPC   H3X 8097   6.222   5.776   5.043 -0.1309  2.9106 -2.5871
   59DOPC   H3Y 8098   6.177   5.645   4.935  0.1565  0.5677 -2.2558
   59DOPC   C34 8099   6.308   5.813   4.858 -0.5963  0.2142  0.2097
   59DOPC   H4X 8100   6.351   5.750   4.778  0.7522  0.4752  0.7002
   59DOPC   H4Y 8101   6.396   5.871   4.895 -0.5461 -1.1573  2.4639
   59DOPC   C35 8102   6.194   5.902   4.810 -0.5454  0.1189 -0.4773
   59DOPC   H5X 8103   6.183   5.992   4.874 -2.2572  0.5678 -1.3453
   59DOPC   H5Y 8104   6.094   5.854   4.817 -0.7560  0.7156  0.8720
   59DOPC   C36 8105   6.212   5.961   4.665  0.0249  0.7116 -0.3077
   59DOPC   H6X 8106   6.302   6.027   4.672  0.2472  0.2937  1.2971
   59DOPC   H6Y 8107   6.242   5.883   4.592 -1.0539  0.7181 -0.7723
   59DOPC   C37 8108   6.086   6.035   4.627  0.4453 -0.4041 -0.2267
   59DOPC   H7X 8109   6.002   5.966   4.605  0.2980  0.3876 -2.4072
   59DOPC   H7Y 8110   6.057   6.102   4.711  1.6199  1.2780 -1.0970
   59DOPC   C38 8111   6.099   6.125   4.510 -0.4403  0.0500  0.6398
   59DOPC   H8X 8112   6.154   6.214   4.547  0.0516  0.2782 -0.5845
   59DOPC   H8Y 8113   6.008   6.172   4.465  0.1919 -0.1602 -0.9260
   59DOPC   C39 8114   6.163   6.066   4.389  0.5013  0.1196 -0.0482
   59DOPC   H9X 8115   6.263   6.020   4.402  0.1811 -0.3934  0.7070
   59DOPC  C310 8116   6.126   6.081   4.259  0.4567 -0.1663 -0.9331
   59DOPC  H10X 8117   6.185   6.028   4.183 -0.2888 -0.7941 -1.0796
   59DOPC  C311 8118   6.007   6.154   4.199 -0.1236  0.2113  0.0841
   59DOPC  H11X 8119   5.946   6.211   4.273 -0.9467 -0.9109  0.2913
   59DOPC  H11Y 8120   5.941   6.072   4.164  1.4514 -1.7081  1.3831
   59DOPC  C312 8121   6.035   6.256   4.085 -0.1626  0.5709 -0.5203
   59DOPC  H12X 8122   6.097   6.339   4.124  0.3663  0.3605 -0.9004
   59DOPC  H12Y 8123   5.937   6.297   4.052 -1.5686 -1.8243  0.3569
   59DOPC  C313 8124   6.113   6.197   3.972 -0.2640 -0.3568 -0.1817
   59DOPC  H13X 8125   6.218   6.233   3.983  0.2239 -1.8451  0.2187
   59DOPC  H13Y 8126   6.121   6.087   3.984  1.6840 -0.3487 -1.0118
   59DOPC  C314 8127   6.074   6.211   3.832  1.1039  0.2609 -0.8367
   59DOPC  H14X 8128   6.136   6.145   3.768  2.3224  0.0143  0.5437
   59DOPC  H14Y 8129   5.975   6.164   3.817  1.4125 -0.1159 -1.7596
   59DOPC  C315 8130   6.066   6.358   3.772 -0.8795  0.3049 -0.5044
   59DOPC  H15X 8131   6.170   6.394   3.758 -1.2566  1.1537 -1.2175
   59DOPC  H15Y 8132   6.013   6.418   3.850  2.0153  0.1749  1.7273
   59DOPC  C316 8133   5.992   6.372   3.644  0.1951 -0.8730  0.0884
   59DOPC  H16X 8134   5.883   6.355   3.651 -0.0351  0.4678  0.0598
   59DOPC  H16Y 8135   5.990   6.475   3.603 -0.8097 -1.5663 -1.7039
   59DOPC  C317 8136   6.048   6.284   3.541 -0.0650  0.7962  0.2114
   59DOPC  H17X 8137   6.072   6.179   3.572  1.9896  1.4727  1.1343
   59DOPC  H17Y 8138   5.970   6.267   3.465  0.9512  1.0569 -0.9130
   59DOPC  C318 8139   6.173   6.326   3.469  0.5208 -0.2244  0.3325
   59DOPC  H18X 8140   6.192   6.267   3.377  1.6069 -0.1326  0.4802
   59DOPC  H18Y 8141   6.172   6.436   3.457  0.4687 -0.1287  1.1482
   59DOPC  H18Z 8142   6.261   6.312   3.536  1.7458 -1.5826 -1.4657
   60DOPC     N 8143   0.504   7.709   5.412  1.6338 -0.0572 -0.0591
   60DOPC   C12 8144   0.504   7.849   5.474 -0.4043  0.1152 -0.1654
   60DOPC  H12A 8145   0.566   7.838   5.562  0.9432 -0.4487 -1.1443
   60DOPC  H12B 8146   0.406   7.876   5.509 -0.2406 -1.0645  1.2921
   60DOPC   C13 8147   0.429   7.699   5.280  0.2987 -0.4640  0.1870
   60DOPC  H13A 8148   0.326   7.674   5.298  0.2393  1.0445  2.4271
   60DOPC  H13B 8149   0.418   7.794   5.230 -1.0520 -1.1247 -0.8059
   60DOPC  H13C 8150   0.465   7.624   5.211  0.9827 -1.1537  1.2593
   60DOPC   C14 8151   0.434   7.611   5.507 -0.7126  0.2386  0.0105
   60DOPC  H14A 8152   0.443   7.510   5.471 -1.6193 -0.7068  2.2129
   60DOPC  H14B 8153   0.467   7.611   5.610 -0.3820  0.0596 -0.0958
   60DOPC  H14C 8154   0.326   7.621   5.517 -0.7143 -0.9829  1.5564
   60DOPC   C15 8155   0.639   7.664   5.377  0.3762  0.0033 -0.0223
   60DOPC  H15A 8156   0.625   7.579   5.312  0.8134 -0.2307  0.1886
   60DOPC  H15B 8157   0.702   7.634   5.460  0.2269 -1.0209 -0.2592
   60DOPC  H15C 8158   0.705   7.739   5.337  1.8170 -0.6232  1.0819
   60DOPC   C11 8159   0.555   7.964   5.384 -0.3099 -0.2528 -0.1540
   60DOPC  H11A 8160   0.581   8.058   5.437 -1.6704  0.7140 -1.1261
   60DOPC  H11B 8161   0.656   7.949   5.339  0.3717 -0.1025  1.2577
   60DOPC     P 8162   0.328   8.082   5.314 -0.1005 -0.2780 -0.0446
   60DOPC   O13 8163   0.287   8.036   5.452  0.6370  0.6670 -0.0755
   60DOPC   O14 8164   0.225   8.064   5.211 -0.1111  0.0057 -0.1116
   60DOPC   O12 8165   0.462   7.993   5.279  0.2242 -0.7225 -0.2593
   60DOPC   O11 8166   0.397   8.227   5.321 -0.0675 -0.0349  0.5741
   60DOPC    C1 8167   0.481   8.256   5.209 -0.1012 -0.2559  0.5856
   60DOPC    HA 8168   0.441   8.238   5.107 -1.1674  2.5509  0.4263
   60DOPC    HB 8169   0.571   8.191   5.216 -0.1643 -0.2580  1.4473
   60DOPC    C2 8170   0.536   8.402   5.199  0.3326  0.7479 -0.0242
   60DOPC    HS 8171   0.578   8.428   5.298 -0.0199 -1.6361  0.8331
   60DOPC   O21 8172   0.420   8.490   5.174  0.5604 -0.0406  0.4898
   60DOPC   C21 8173   0.430   0.073   5.218  0.0581  0.4034 -0.1652
   60DOPC   O22 8174   0.521   0.114   5.290 -0.0088  0.4939 -0.0273
   60DOPC   C22 8175   0.299   0.149   5.185  0.8192  0.2227  0.6613
   60DOPC   H2R 8176   0.237   0.146   5.277 -1.3214  1.1968 -0.6644
   60DOPC   H2S 8177   0.244   0.081   5.116  2.1344 -1.4977  1.2413
   60DOPC    C3 8178   0.647   8.423   5.090  0.1981  0.1339 -0.2268
   60DOPC    HX 8179   0.739   8.371   5.125  0.9400 -0.0935 -2.3586
   60DOPC    HY 8180   0.660   8.531   5.109  0.5595  0.0311  0.1500
   60DOPC   O31 8181   0.605   8.406   4.949 -0.0332 -0.3367 -0.2360
   60DOPC   C31 8182   0.626   8.291   4.894  0.7009 -0.0325  0.2487
   60DOPC   O32 8183   0.670   8.193   4.952  0.3852  0.0578  0.0163
   60DOPC   C32 8184   0.590   8.294   4.751 -0.0226 -0.7076 -0.9511
   60DOPC   H2X 8185   0.570   8.399   4.723  1.2234 -0.3210 -0.4464
   60DOPC   H2Y 8186   0.680   8.277   4.688 -0.5963  1.0295 -2.2980
   60DOPC   C23 8187   0.298   0.291   5.129 -0.3803 -0.9660 -0.9287
   60DOPC   H3R 8188   0.356   0.295   5.035  0.2686  3.1065 -0.5367
   60DOPC   H3S 8189   0.334   0.369   5.199 -0.0490 -1.0123 -1.0494
   60DOPC   C24 8190   0.158   0.342   5.087  0.2822  0.1398 -0.8667
   60DOPC   H4R 8191   0.097   0.331   5.180 -1.5856 -1.9416 -2.2443
   60DOPC   H4S 8192   0.117   0.262   5.023  1.3955 -1.5166  0.4238
   60DOPC   C25 8193   0.148   0.477   5.024 -0.1656  0.5078 -0.3240
   60DOPC   H5R 8194   0.189   0.463   4.921 -1.7020  1.6391 -1.1305
   60DOPC   H5S 8195   0.192   0.567   5.073  2.6340 -1.2263  0.5695
   60DOPC   C26 8196   0.002   0.514   5.001  0.1527 -0.5157 -0.4480
   60DOPC   H6R 8197   8.492   0.531   5.101  2.8860  0.1454  0.7707
   60DOPC   H6S 8198   8.483   0.431   4.952  0.9933 -1.5946  0.4028
   60DOPC   C27 8199   8.521   0.642   4.917 -0.0161 -0.4016  0.4936
   60DOPC   H7R 8200   0.047   0.624   4.826  1.2161 -0.3613  1.2920
   60DOPC   H7S 8201   0.025   0.725   4.979 -0.2950  0.2748 -0.2173
   60DOPC   C28 8202   8.370   0.655   4.884 -0.1674  0.4342 -0.2226
   60DOPC   H8R 8203   8.295   0.667   4.965 -0.2774  0.3002 -0.3052
   60DOPC   H8S 8204   8.337   0.562   4.833 -0.0682  0.3205 -0.0792
   60DOPC   C29 8205   8.360   0.763   4.787 -0.3193 -0.3069 -0.3146
   60DOPC   H9R 8206   8.293   0.842   4.822 -2.0889 -2.5221  1.6742
   60DOPC  C210 8207   8.402   0.762   4.660  0.6357  0.9943 -0.4167
   60DOPC  H10R 8208   8.368   0.843   4.593 -1.1997 -1.1700 -2.2840
   60DOPC  C211 8209   8.462   0.649   4.575  0.5023  0.3981  0.5199
   60DOPC  H11R 8210   8.382   0.574   4.557 -0.2800  1.5018 -0.8616
   60DOPC  H11S 8211   0.009   0.601   4.631  0.1044 -0.8902  0.0301
   60DOPC  C212 8212   8.519   0.699   4.437 -0.3700  0.0232 -0.3244
   60DOPC  H12R 8213   0.056   0.782   4.447  1.2641 -1.2403 -1.1870
   60DOPC  H12S 8214   8.430   0.736   4.380 -0.2440  0.7227 -0.0693
   60DOPC  C213 8215   0.058   0.587   4.361  0.6296 -0.0958 -0.4582
   60DOPC  H13R 8216   0.083   0.640   4.266  0.9388 -0.5713 -0.6442
   60DOPC  H13S 8217   8.534   0.496   4.338  0.5735 -0.1681 -0.0232
   60DOPC  C214 8218   0.186   0.530   4.425 -0.3654 -0.0714 -0.0566
   60DOPC  H14R 8219   0.169   0.474   4.520  1.6842  2.1561  1.7670
   60DOPC  H14S 8220   0.244   0.621   4.454 -0.0584 -0.9600  2.3548
   60DOPC  C215 8221   0.274   0.447   4.331 -0.4253  0.2351  0.2729
   60DOPC  H15R 8222   0.367   0.423   4.386 -0.4273 -1.6405 -0.4874
   60DOPC  H15S 8223   0.293   0.501   4.236 -2.0634  0.6097  0.1183
   60DOPC  C216 8224   0.223   0.308   4.302 -0.1078 -0.4371 -0.4530
   60DOPC  H16R 8225   0.140   0.318   4.228 -0.1309  2.5359 -0.1463
   60DOPC  H16S 8226   0.184   0.263   4.395 -0.0124  1.4717  0.5567
   60DOPC  C217 8227   0.333   0.219   4.249 -0.6524 -0.0828  1.1941
   60DOPC  H17R 8228   0.285   0.129   4.205 -0.2766 -0.7469  2.1128
   60DOPC  H17S 8229   0.403   0.187   4.329 -0.9473 -0.4461  1.3102
   60DOPC  C218 8230   0.422   0.282   4.131  0.3106 -0.0342  0.5109
   60DOPC  H18R 8231   0.462   0.377   4.174  0.4181 -0.3381  1.1028
   60DOPC  H18S 8232   0.360   0.311   4.044  1.3102 -1.0913 -0.6039
   60DOPC  H18T 8233   0.504   0.217   4.092 -1.1381 -0.7299 -1.5124
   60DOPC   C33 8234   0.485   8.187   4.712 -0.1828  0.6836  0.0215
   60DOPC   H3X 8235   0.409   8.191   4.792  0.7656  0.5175  0.9530
   60DOPC   H3Y 8236   0.538   8.090   4.723  1.2350  1.0194 -2.8217
   60DOPC   C34 8237   0.425   8.186   4.571 -0.3911  0.1081 -0.0149
   60DOPC   H4X 8238   0.336   8.252   4.564 -1.2869 -1.0678 -0.0333
   60DOPC   H4Y 8239   0.398   8.080   4.555  0.8551 -0.4905  1.5666
   60DOPC   C35 8240   0.528   8.233   4.471 -0.3370  0.0594  0.4281
   60DOPC   H5X 8241   0.609   8.158   4.462 -1.4681 -1.1213 -0.2819
   60DOPC   H5Y 8242   0.568   8.334   4.491 -1.4976  0.7427 -0.5325
   60DOPC   C36 8243   0.444   8.259   4.340 -0.1181  0.1145 -0.4845
   60DOPC   H6X 8244   0.366   8.180   4.338 -1.2746  1.2435 -1.6549
   60DOPC   H6Y 8245   0.398   8.360   4.348 -1.6542 -0.6510  1.1839
   60DOPC   C37 8246   0.518   8.210   4.210 -0.7123  0.0129  0.2586
   60DOPC   H7X 8247   0.617   8.260   4.215 -0.6208  0.1189 -1.8078
   60DOPC   H7Y 8248   0.536   8.100   4.214  0.2300 -0.0644 -3.0121
   60DOPC   C38 8249   0.455   8.243   4.076 -0.2395  0.0814  0.9735
   60DOPC   H8X 8250   0.368   8.178   4.051  1.6381 -1.6102 -1.6232
   60DOPC   H8Y 8251   0.521   8.215   3.991 -2.2518 -0.6647 -0.4128
   60DOPC   C39 8252   0.428   8.391   4.071 -0.1105  0.7998  0.7006
   60DOPC   H9X 8253   0.517   8.450   4.095  1.2639 -0.1288 -1.7550
   60DOPC  C310 8254   0.309   8.449   4.040 -0.0700  0.5245 -0.0667
   60DOPC  H10X 8255   0.306   0.023   4.026 -2.0406  0.3438 -1.5112
   60DOPC  C311 8256   0.181   8.393   4.000 -0.5535 -0.5797 -0.7094
   60DOPC  H11X 8257   0.197   8.284   3.984 -1.6775 -1.3555  2.6782
   60DOPC  H11Y 8258   0.158   8.455   3.911 -0.5226  4.5369  2.4929
   60DOPC  C312 8259   0.070   8.423   4.097 -0.1329 -0.6006 -0.2244
   60DOPC  H12X 8260   8.505   8.397   4.057 -0.3721 -0.2323  0.1259
   60DOPC  H12Y 8261   0.061   8.531   4.125  0.4802 -1.1307  2.2506
   60DOPC  C313 8262   0.078   8.339   4.223  0.0965  0.4012 -0.3213
   60DOPC  H13X 8263   0.063   8.231   4.199 -0.4327  0.5768 -0.8048
   60DOPC  H13Y 8264   0.173   8.350   4.280 -0.6139 -0.1511  1.0422
   60DOPC  C314 8265   8.503   8.376   4.328  0.3040  0.2642  0.0471
   60DOPC  H14X 8266   8.513   8.484   4.353 -1.8756  0.1892  1.4986
   60DOPC  H14Y 8267   8.401   8.364   4.284 -0.2776 -0.7594  1.5845
   60DOPC  C315 8268   8.519   8.282   4.445  0.2427  0.6304 -0.0583
   60DOPC  H15X 8269   0.084   8.290   4.493  0.3378  2.0101 -0.4433
   60DOPC  H15Y 8270   8.516   8.173   4.425  1.9644  0.0333  2.4010
   60DOPC  C316 8271   8.406   8.294   4.550  0.9520 -0.4825  0.6634
   60DOPC  H16X 8272   8.425   8.384   4.614  1.8489  0.3645 -0.7465
   60DOPC  H16Y 8273   8.312   8.319   4.496  0.6815 -1.9498  0.4314
   60DOPC  C317 8274   8.393   8.183   4.649 -0.2470 -0.7445  0.7049
   60DOPC  H17X 8275   8.353   8.090   4.603  0.3671 -0.6413 -0.0627
   60DOPC  H17Y 8276   8.498   8.162   4.681  0.7018 -0.0314 -1.7452
   60DOPC  C318 8277   8.313   8.201   4.772 -0.1082 -1.1161 -0.4549
   60DOPC  H18X 8278   8.204   8.196   4.747  0.0397 -1.8543 -0.9884
   60DOPC  H18Y 8279   8.332   8.109   4.831  0.1715 -2.0232 -1.9116
   60DOPC  H18Z 8280   8.333   8.291   4.834  0.1944 -0.4393 -1.5063
   61DOPC     N 8281   8.306   8.323   5.901 -0.6570 -0.1927 -0.0440
   61DOPC   C12 8282   8.425   8.386   5.833 -0.3305  0.0643  0.3519
   61DOPC  H12A 8283   8.502   8.310   5.827 -0.1441  0.3374 -1.5881
   61DOPC  H12B 8284   8.467   8.467   5.890  3.2819 -0.4982 -1.1726
   61DOPC   C13 8285   8.205   8.428   5.906  0.0584 -0.1079  0.1020
   61DOPC  H13A 8286   8.239   8.526   5.936 -1.7460 -0.2157  2.9313
   61DOPC  H13B 8287   8.166   8.431   5.805 -3.0372 -0.1415  1.1695
   61DOPC  H13C 8288   8.116   8.399   5.961 -1.2491 -0.4503 -2.0711
   61DOPC   C14 8289   8.350   8.287   6.040  0.2546 -0.4072  0.8305
   61DOPC  H14A 8290   8.264   8.254   6.096  0.1035 -3.0093 -0.7494
   61DOPC  H14B 8291   8.428   8.212   6.037 -0.3690 -1.0496 -0.8012
   61DOPC  H14C 8292   8.391   8.375   6.086 -0.0335  1.1505 -1.6692
   61DOPC   C15 8293   8.247   8.208   5.814 -0.0457  0.0601  0.0490
   61DOPC  H15A 8294   8.310   8.122   5.798  0.0929 -0.3325  2.3044
   61DOPC  H15B 8295   8.210   8.253   5.723  2.1861 -0.6111 -1.2765
   61DOPC  H15C 8296   8.160   8.163   5.860  0.4614  0.5434  1.5419
   61DOPC   C11 8297   8.409   8.422   5.685  0.2358 -0.2576  0.1353
   61DOPC  H11A 8298   8.506   8.464   5.649 -0.0355 -0.6239 -1.0699
   61DOPC  H11B 8299   8.391   8.331   5.624 -0.9378 -1.6701  2.4573
   61DOPC     P 8300   8.196   8.491   5.557  0.1693  0.2326  0.0559
   61DOPC   O13 8301   8.110   0.071   5.536  0.6111  0.4993  0.3834
   61DOPC   O14 8302   8.137   8.361   5.588  0.3911 -0.8089  0.1260
   61DOPC   O12 8303   8.308   8.522   5.662 -0.8405  0.4646 -0.0494
   61DOPC   O11 8304   8.278   8.473   5.419 -0.1088 -0.2627  0.0738
   61DOPC    C1 8305   8.372   0.033   5.390 -0.5201 -0.4508  0.0428
   61DOPC    HA 8306   8.437   0.050   5.478 -1.5806  1.6971  0.4982
   61DOPC    HB 8307   8.331   0.134   5.368  0.5957 -0.0376 -0.2251
   61DOPC    C2 8308   8.472   8.532   5.272  0.5379 -0.8495 -0.3952
   61DOPC    HS 8309   0.014   0.077   5.269 -0.8937  0.5674 -1.3782
   61DOPC   O21 8310   8.411   8.525   5.137  0.3082 -0.4862 -0.1557
   61DOPC   C21 8311   8.368   0.099   5.092 -0.5144 -0.8308 -0.3189
   61DOPC   O22 8312   8.367   0.207   5.150 -0.1471  0.1576 -0.9544
   61DOPC   C22 8313   8.326   0.075   4.949  0.6014  0.4616  0.3998
   61DOPC   H2R 8314   8.228   0.022   4.938  2.1027 -2.1680 -1.7153
   61DOPC   H2S 8315   8.395   0.003   4.899 -2.3453 -1.5536 -1.0771
   61DOPC    C3 8316   0.010   8.400   5.291 -0.3866 -0.1943 -0.1479
   61DOPC    HX 8317   8.474   8.315   5.283  0.9044 -1.1332 -2.8047
   61DOPC    HY 8318   0.056   8.391   5.392  1.1728 -1.0469 -0.8844
   61DOPC   O31 8319   0.119   8.391   5.201  0.3315  0.3092  0.6149
   61DOPC   C31 8320   0.082   8.330   5.082  0.0029 -0.3402  0.1723
   61DOPC   O32 8321   8.517   8.263   5.062  0.0727 -0.1942  0.1398
   61DOPC   C32 8322   0.179   8.343   4.972 -0.2695 -0.4433 -0.0333
   61DOPC   H2X 8323   0.283   8.366   5.002 -0.0896 -1.7734  0.4596
   61DOPC   H2Y 8324   0.195   8.246   4.919  0.4681  0.0560 -0.7459
   61DOPC   C23 8325   8.317   0.206   4.870  0.1720  0.2992 -0.6723
   61DOPC   H3R 8326   8.421   0.245   4.866  0.4980 -0.5681 -0.9829
   61DOPC   H3S 8327   8.259   0.279   4.930 -0.4417 -0.8321  0.1668
   61DOPC   C24 8328   8.274   0.177   4.722  0.0327  0.1994 -0.3107
   61DOPC   H4R 8329   8.173   0.132   4.724  0.3579 -0.8614 -2.9147
   61DOPC   H4S 8330   8.353   0.103   4.698  0.1227  0.0593  0.4207
   61DOPC   C25 8331   8.287   0.290   4.615 -0.2784 -0.5136  0.0793
   61DOPC   H5R 8332   8.393   0.325   4.618 -0.6293  0.6498 -0.5884
   61DOPC   H5S 8333   8.222   0.377   4.634  0.0071 -0.3628  0.3687
   61DOPC   C26 8334   8.257   0.222   4.481 -0.2800  0.5030  0.7687
   61DOPC   H6R 8335   8.172   0.152   4.497 -0.0289 -0.3666 -1.3851
   61DOPC   H6S 8336   8.346   0.157   4.466 -1.6971 -0.7422 -3.7787
   61DOPC   C27 8337   8.244   0.310   4.356 -0.2739  0.2480 -0.2469
   61DOPC   H7R 8338   8.333   0.376   4.356  1.8139 -2.4152  0.8209
   61DOPC   H7S 8339   8.156   0.375   4.379 -0.6096  0.9189 -3.0202
   61DOPC   C28 8340   8.225   0.227   4.231  0.0412 -1.1570  0.0841
   61DOPC   H8R 8341   8.130   0.170   4.238 -1.2402  0.9637  0.9833
   61DOPC   H8S 8342   8.314   0.161   4.229  0.6779 -0.3405  0.6980
   61DOPC   C29 8343   8.204   0.316   4.105 -0.4925 -0.0353 -0.1898
   61DOPC   H9R 8344   8.111   0.376   4.106  1.2179  2.9841 -3.2125
   61DOPC  C210 8345   8.282   0.332   3.998  0.7749 -0.0264 -0.7015
   61DOPC  H10R 8346   8.252   0.411   3.927 -0.8871  0.0675  0.0556
   61DOPC  C211 8347   8.417   0.275   3.979 -0.2366  0.1070 -0.2510
   61DOPC  H11R 8348   8.431   0.174   4.023  2.9515 -0.2464 -1.7854
   61DOPC  H11S 8349   8.499   0.329   4.031 -0.6468 -0.3850  0.9348
   61DOPC  C212 8350   8.460   0.255   3.836  0.1996  0.1769 -0.4259
   61DOPC  H12R 8351   8.407   0.325   3.768 -2.6105 -1.0045  0.3709
   61DOPC  H12S 8352   8.429   0.156   3.795  2.6073 -1.2617  0.9636
   61DOPC  C213 8353   0.075   0.263   3.818  0.5578  0.2142 -0.4281
   61DOPC  H13R 8354   0.090   0.218   3.718  0.2187 -1.0840  0.0803
   61DOPC  H13S 8355   0.131   0.207   3.896  0.6577 -1.2072 -1.4740
   61DOPC  C214 8356   0.113   0.412   3.817 -0.7957 -0.4600 -0.3288
   61DOPC  H14R 8357   0.082   0.453   3.915 -0.2043 -0.6839 -0.0381
   61DOPC  H14S 8358   0.057   0.460   3.734 -2.7231 -4.5983 -1.6722
   61DOPC  C215 8359   0.265   0.427   3.796  0.3878  0.1043  0.2819
   61DOPC  H15R 8360   0.322   0.348   3.850 -2.5177 -2.7250 -0.5120
   61DOPC  H15S 8361   0.289   0.531   3.829 -0.7362  0.6367 -0.5197
   61DOPC  C216 8362   0.310   0.412   3.643  0.1586  0.4783 -0.5864
   61DOPC  H16R 8363   0.279   0.509   3.598 -0.6662  1.0182  1.0615
   61DOPC  H16S 8364   0.252   0.339   3.582 -0.2421 -0.1811  0.5542
   61DOPC  C217 8365   0.459   0.382   3.625 -0.4278  0.5803 -0.0064
   61DOPC  H17R 8366   0.483   0.293   3.687  1.1851  0.2808 -0.9767
   61DOPC  H17S 8367   0.521   0.455   3.681 -1.0240  0.6395  0.5814
   61DOPC  C218 8368   0.506   0.362   3.484 -0.3485  0.1302 -0.0582
   61DOPC  H18R 8369   0.477   0.262   3.447  2.9980 -0.5723 -1.1092
   61DOPC  H18S 8370   0.617   0.365   3.479 -0.2780 -2.1927 -0.8634
   61DOPC  H18T 8371   0.475   0.438   3.409  0.9767  0.6657 -0.1060
   61DOPC   C33 8372   0.129   8.443   4.863  0.4792  0.0740 -0.3386
   61DOPC   H3X 8373   0.124   0.007   4.912 -1.2126  0.0800 -0.4758
   61DOPC   H3Y 8374   0.033   8.401   4.827  0.7160 -0.6417 -0.1464
   61DOPC   C34 8375   0.209   8.442   4.739  0.1204 -0.8749  0.8628
   61DOPC   H4X 8376   0.188   8.346   4.686  0.0975 -0.6876  0.5321
   61DOPC   H4Y 8377   0.320   8.441   4.751  0.4714  1.8700 -1.1772
   61DOPC   C35 8378   0.185   0.016   4.634  0.4977 -0.6784 -0.4614
   61DOPC   H5X 8379   0.077   0.013   4.610 -0.5062 -2.2494  3.4085
   61DOPC   H5Y 8380   0.233   0.001   4.536 -1.1438 -0.9169 -1.2638
   61DOPC   C36 8381   0.213   0.162   4.683  0.6129  0.3483 -0.3650
   61DOPC   H6X 8382   0.197   0.233   4.599 -2.6470 -0.3509 -0.4580
   61DOPC   H6Y 8383   0.129   0.171   4.756 -0.0436 -1.2077 -0.8881
   61DOPC   C37 8384   0.338   0.176   4.771  0.3108  0.0073 -0.3912
   61DOPC   H7X 8385   0.330   0.276   4.820  0.4731  0.1774 -0.7088
   61DOPC   H7Y 8386   0.339   0.099   4.851 -0.1198  0.8423  0.4444
   61DOPC   C38 8387   0.464   0.179   4.675  0.3391  0.3848 -0.1280
   61DOPC   H8X 8388   0.448   0.272   4.617 -0.4025 -1.3264 -2.8518
   61DOPC   H8Y 8389   0.445   0.105   4.594 -0.0814  0.0631  0.2590
   61DOPC   C39 8390   0.599   0.159   4.737 -0.2451  0.6318  0.2345
   61DOPC   H9X 8391   0.603   0.179   4.845  2.1744 -0.3190  0.3896
   61DOPC  C310 8392   0.708   0.119   4.668  0.8459  0.4366  0.2993
   61DOPC  H10X 8393   0.802   0.110   4.723  0.2948 -0.0181  1.1937
   61DOPC  C311 8394   0.717   0.096   4.519 -0.6089 -0.0759 -0.3948
   61DOPC  H11X 8395   0.622   0.111   4.462 -0.8402  0.1469  0.0462
   61DOPC  H11Y 8396   0.747   8.525   4.509 -0.1299 -0.1549  1.5413
   61DOPC  C312 8397   0.844   0.178   4.476  0.0428 -0.5273 -0.0144
   61DOPC  H12X 8398   0.917   0.113   4.424  1.1819  0.3326  0.4734
   61DOPC  H12Y 8399   0.904   0.222   4.558 -1.4529  0.4322  0.6188
   61DOPC  C313 8400   0.811   0.293   4.378 -0.8402  0.8281 -0.6410
   61DOPC  H13X 8401   0.740   0.255   4.302  0.7698 -1.7012 -1.0159
   61DOPC  H13Y 8402   0.768   0.383   4.426 -0.8657  1.3879 -1.6961
   61DOPC  C314 8403   0.947   0.335   4.317  0.4494  0.2761 -0.3194
   61DOPC  H14X 8404   1.020   0.385   4.385  0.6603 -1.2624  0.6408
   61DOPC  H14Y 8405   1.005   0.243   4.291  3.3155  1.5842  0.9849
   61DOPC  C315 8406   0.910   0.425   4.193  0.4390 -0.0340 -0.5825
   61DOPC  H15X 8407   0.857   0.517   4.226 -0.5945 -0.3720 -1.2660
   61DOPC  H15Y 8408   0.838   0.360   4.139 -0.3561 -0.1441  0.5747
   61DOPC  C316 8409   1.025   0.472   4.115  0.1508 -0.5725 -0.0737
   61DOPC  H16X 8410   1.071   0.560   4.167  0.9566  0.2696 -2.1072
   61DOPC  H16Y 8411   1.107   0.398   4.110  0.4174 -0.4010  1.3928
   61DOPC  C317 8412   0.993   0.515   3.969  0.2159 -0.0195  0.4036
   61DOPC  H17X 8413   0.951   0.427   3.918 -0.0891  1.0230 -1.2284
   61DOPC  H17Y 8414   0.920   0.599   3.963  1.2448  1.0772  2.0359
   61DOPC  C318 8415   1.116   0.552   3.887  0.3740  0.3084  0.4326
   61DOPC  H18X 8416   1.099   0.611   3.795  0.0505  0.8360  0.8197
   61DOPC  H18Y 8417   1.180   0.611   3.956  1.1662  0.0242 -0.0473
   61DOPC  H18Z 8418   1.176   0.461   3.868  1.0280  0.7907  0.1624
   62DOPC     N 8419   2.738   2.564   5.537  0.5583 -0.4111 -0.0647
   62DOPC   C12 8420   2.845   2.530   5.434 -0.0052  0.5401 -0.3855
   62DOPC  H12A 8421   2.839   2.598   5.350 -1.5158  0.1561 -0.6225
   62DOPC  H12B 8422   2.820   2.439   5.383 -4.4880  1.2275  0.1571
   62DOPC   C13 8423   2.759   2.704   5.586 -0.4606  0.5973  0.2119
   62DOPC  H13A 8424   2.719   2.781   5.522 -0.7074  1.2694  1.1577
   62DOPC  H13B 8425   2.711   2.724   5.680 -0.2092 -1.8180  0.9170
   62DOPC  H13C 8426   2.865   2.712   5.604 -0.2547  0.5741 -0.8816
   62DOPC   C14 8427   2.762   2.481   5.655 -0.3062  1.2494 -0.0577
   62DOPC  H14A 8428   2.858   2.503   5.698 -0.0366  0.1644 -0.0889
   62DOPC  H14B 8429   2.690   2.516   5.728 -0.7896  0.8657 -0.3438
   62DOPC  H14C 8430   2.763   2.375   5.634  0.7089  1.1582  0.3842
   62DOPC   C15 8431   2.593   2.538   5.486 -0.5268  0.6482 -0.3552
   62DOPC  H15A 8432   2.526   2.558   5.568 -0.3822 -1.5582  0.3706
   62DOPC  H15B 8433   2.584   2.434   5.459  0.2582  1.0697 -2.4562
   62DOPC  H15C 8434   2.566   2.594   5.398 -0.1762  0.3758 -0.6421
   62DOPC   C11 8435   2.990   2.520   5.487 -0.5158 -0.3665  0.4212
   62DOPC  H11A 8436   2.999   2.466   5.584  2.0040 -0.0119  0.4756
   62DOPC  H11B 8437   3.059   2.469   5.417 -0.9158 -1.6528  0.9376
   62DOPC     P 8438   3.178   2.696   5.543  0.0975 -0.0005 -0.1281
   62DOPC   O13 8439   3.222   2.631   5.665  0.7658  0.7812 -0.1533
   62DOPC   O14 8440   3.203   2.842   5.540 -0.5168 -0.2625  0.5431
   62DOPC   O12 8441   3.033   2.655   5.499  0.0933 -0.2713  0.5237
   62DOPC   O11 8442   3.250   2.625   5.418 -0.3574  0.3083 -0.0606
   62DOPC    C1 8443   3.259   2.690   5.294 -0.5212  0.5178  0.4588
   62DOPC    HA 8444   3.352   2.751   5.295 -0.6182  0.6863 -0.3667
   62DOPC    HB 8445   3.171   2.753   5.266  1.0516  2.5859 -0.0636
   62DOPC    C2 8446   3.276   2.586   5.170 -0.0981  0.3253  0.3055
   62DOPC    HS 8447   3.379   2.544   5.171 -0.9155 -1.9478 -1.6147
   62DOPC   O21 8448   3.247   2.651   5.047 -0.3911 -0.2019 -0.0107
   62DOPC   C21 8449   3.341   2.730   5.003 -0.0181 -0.0447  0.6941
   62DOPC   O22 8450   3.448   2.755   5.053  0.6826 -0.5762 -0.2781
   62DOPC   C22 8451   3.305   2.767   4.855 -0.5535 -0.6515  0.4755
   62DOPC   H2R 8452   3.215   2.833   4.855  0.1859  0.5463 -2.5426
   62DOPC   H2S 8453   3.289   2.668   4.806  1.1027 -1.6176  1.8090
   62DOPC    C3 8454   3.179   2.473   5.190  0.2605  1.2168 -0.1856
   62DOPC    HX 8455   3.082   2.521   5.214 -0.5517  0.1254 -1.1349
   62DOPC    HY 8456   3.204   2.405   5.274 -0.3361  0.2854 -0.7397
   62DOPC   O31 8457   3.162   2.392   5.069  0.4482 -0.0338  0.3663
   62DOPC   C31 8458   3.248   2.307   5.028 -0.5276 -0.5606 -0.5344
   62DOPC   O32 8459   3.354   2.275   5.083 -0.3082 -0.7289 -0.6166
   62DOPC   C32 8460   3.203   2.266   4.895 -0.2336 -0.4171 -0.4521
   62DOPC   H2X 8461   3.161   2.163   4.899  0.3416 -0.6332  0.6864
   62DOPC   H2Y 8462   3.123   2.333   4.857 -0.1826  0.1063  0.3350
   62DOPC   C23 8463   3.430   2.830   4.780 -0.3186  0.4056  0.1053
   62DOPC   H3R 8464   3.515   2.762   4.759 -1.0042  0.3956 -3.4252
   62DOPC   H3S 8465   3.470   2.909   4.846 -0.1631  0.5650 -0.1755
   62DOPC   C24 8466   3.395   2.897   4.642  0.0511 -0.0284 -0.1053
   62DOPC   H4R 8467   3.490   2.927   4.592  0.2702 -2.6421 -1.4447
   62DOPC   H4S 8468   3.342   2.993   4.658 -0.1616 -0.1790  0.0882
   62DOPC   C25 8469   3.318   2.809   4.540 -0.2916 -0.8383  0.3389
   62DOPC   H5R 8470   3.217   2.781   4.578 -0.7450 -2.1736 -1.6779
   62DOPC   H5S 8471   3.375   2.715   4.528 -0.4111 -0.7573 -1.1338
   62DOPC   C26 8472   3.299   2.879   4.401  0.5149 -0.0211 -0.6809
   62DOPC   H6R 8473   3.400   2.884   4.356  1.0571 -0.7503  0.4145
   62DOPC   H6S 8474   3.261   2.982   4.417  1.0779  0.3964 -1.8814
   62DOPC   C27 8475   3.190   2.816   4.317 -0.3411  0.9284 -0.5254
   62DOPC   H7R 8476   3.095   2.817   4.374 -0.0167  2.6593  0.0314
   62DOPC   H7S 8477   3.214   2.709   4.297  0.0212  1.4385 -3.1150
   62DOPC   C28 8478   3.175   2.872   4.176  0.2406 -0.3628  0.1247
   62DOPC   H8R 8479   3.157   2.981   4.179  6.7082  1.1943 -1.6700
   62DOPC   H8S 8480   3.089   2.823   4.126 -1.9064  1.0119  2.2857
   62DOPC   C29 8481   3.303   2.853   4.096 -0.0516 -0.2365  0.8239
   62DOPC   H9R 8482   3.394   2.831   4.154  0.0490  0.0560  0.7746
   62DOPC  C210 8483   3.322   2.855   3.956 -0.1573 -0.6607 -0.3210
   62DOPC  H10R 8484   3.422   2.841   3.911  0.3769  0.0367  0.5881
   62DOPC  C211 8485   3.206   2.878   3.865 -0.1273  0.4035 -0.0263
   62DOPC  H11R 8486   3.176   2.982   3.842  0.9474  0.1243 -3.1484
   62DOPC  H11S 8487   3.118   2.820   3.899  0.4144 -0.3453  0.1403
   62DOPC  C212 8488   3.219   2.794   3.735  0.5012 -0.0179 -0.5501
   62DOPC  H12R 8489   3.231   2.691   3.774  2.6026  0.3772 -0.0058
   62DOPC  H12S 8490   3.318   2.820   3.692  0.9859 -0.5789  0.2078
   62DOPC  C213 8491   3.108   2.807   3.629 -0.3114  0.7175 -0.1432
   62DOPC  H13R 8492   3.105   2.913   3.598 -0.9712  0.6195 -0.4409
   62DOPC  H13S 8493   3.005   2.773   3.656 -0.2003 -1.4357 -2.1258
   62DOPC  C214 8494   3.146   2.717   3.513 -0.1734 -0.0159 -0.1590
   62DOPC  H14R 8495   3.107   2.614   3.531  1.8029 -0.8627 -0.4486
   62DOPC  H14S 8496   3.253   2.719   3.482 -0.5553  1.0443 -1.4822
   62DOPC  C215 8497   3.065   2.752   3.390 -0.2469  0.6239  0.1471
   62DOPC  H15R 8498   3.090   2.854   3.355 -2.3149  1.1660  0.0740
   62DOPC  H15S 8499   2.955   2.748   3.410  0.1146  1.3546  2.6777
   62DOPC  C216 8500   3.092   2.651   3.272  0.7417  0.5182 -0.0933
   62DOPC  H16R 8501   3.009   2.655   3.198  0.6653  3.7897  0.0220
   62DOPC  H16S 8502   3.107   2.546   3.304 -0.6406  0.7012  1.2677
   62DOPC  C217 8503   3.210   2.679   3.197 -0.2008 -0.0018  0.5647
   62DOPC  H17R 8504   3.292   2.690   3.271 -0.7723 -1.3967  1.4422
   62DOPC  H17S 8505   3.212   2.779   3.148  0.2436  0.3752  1.3244
   62DOPC  C218 8506   3.237   2.569   3.099  0.0807  0.5353  0.1232
   62DOPC  H18R 8507   3.305   2.609   3.021 -1.6362  0.6727 -1.3678
   62DOPC  H18S 8508   3.140   2.533   3.060  0.0980 -1.1521  1.5109
   62DOPC  H18T 8509   3.281   2.481   3.150 -1.4751  0.2899  1.1054
   62DOPC   C33 8510   3.317   2.278   4.788 -0.3004 -0.0365 -0.7645
   62DOPC   H3X 8511   3.367   2.179   4.778 -1.3772 -0.4327 -2.5904
   62DOPC   H3Y 8512   3.398   2.341   4.830 -0.5815 -0.0753 -0.1501
   62DOPC   C34 8513   3.275   2.334   4.650  0.0565 -0.3662 -0.1926
   62DOPC   H4X 8514   3.244   2.440   4.656  2.5458  0.4687 -0.7544
   62DOPC   H4Y 8515   3.184   2.277   4.622 -0.6593  0.3335  0.6715
   62DOPC   C35 8516   3.397   2.324   4.551  0.2131  0.0091  0.2478
   62DOPC   H5X 8517   3.424   2.217   4.541 -2.3603 -1.1394  3.5669
   62DOPC   H5Y 8518   3.488   2.361   4.604 -0.5629  1.9724  0.3129
   62DOPC   C36 8519   3.374   2.396   4.423  0.2179  0.6951 -0.6780
   62DOPC   H6X 8520   3.339   2.331   4.340  1.5543 -1.1468  0.1328
   62DOPC   H6Y 8521   3.299   2.476   4.442 -0.8325 -0.5513  0.6772
   62DOPC   C37 8522   3.503   2.469   4.386 -0.4017  0.2123  0.7431
   62DOPC   H7X 8523   3.469   2.531   4.301 -4.1478 -0.5791  1.4887
   62DOPC   H7Y 8524   3.521   2.535   4.474  0.0702  0.8674  0.1623
   62DOPC   C38 8525   3.625   2.388   4.330 -0.5888  0.3014 -0.0583
   62DOPC   H8X 8526   3.600   2.370   4.223  0.3434 -0.3714 -0.1786
   62DOPC   H8Y 8527   3.622   2.293   4.387  0.0059  0.4572  0.2375
   62DOPC   C39 8528   3.753   2.455   4.342  0.3471 -0.6002 -0.0845
   62DOPC   H9X 8529   3.754   2.563   4.320 -1.8335 -0.3889  0.5402
   62DOPC  C310 8530   3.859   2.397   4.404  0.1482 -0.5869  0.4729
   62DOPC  H10X 8531   3.955   2.451   4.403  0.3153 -0.8879  0.3183
   62DOPC  C311 8532   3.869   2.257   4.452 -0.1144 -0.0797 -0.5021
   62DOPC  H11X 8533   3.976   2.233   4.441 -0.7030 -2.9562 -0.7172
   62DOPC  H11Y 8534   3.819   2.183   4.386  0.6161  0.5849 -1.8379
   62DOPC  C312 8535   3.836   2.230   4.598 -0.2543 -0.7205  0.9435
   62DOPC  H12X 8536   3.740   2.282   4.619 -1.0896 -0.5023 -2.6867
   62DOPC  H12Y 8537   3.910   2.281   4.664 -1.5061  1.2855  0.8738
   62DOPC  C313 8538   3.831   2.081   4.621  0.0471  0.4670 -1.1737
   62DOPC  H13X 8539   3.743   2.027   4.578 -0.1926 -0.3918  0.3287
   62DOPC  H13Y 8540   3.916   2.021   4.582 -1.2671 -0.5984 -2.5337
   62DOPC  C314 8541   3.830   2.051   4.770  0.1445 -0.1154 -0.7950
   62DOPC  H14X 8542   3.922   2.101   4.809  0.3215  0.6752 -2.1890
   62DOPC  H14Y 8543   3.746   2.099   4.824 -0.2750 -3.3013  1.7390
   62DOPC  C315 8544   3.807   1.899   4.794 -0.4640  0.2455  0.1896
   62DOPC  H15X 8545   3.887   1.845   4.739  1.5582  2.4230  0.8107
   62DOPC  H15Y 8546   3.709   1.857   4.764  0.9025 -3.4415  0.3857
   62DOPC  C316 8547   3.838   1.856   4.935 -0.3476 -0.3085 -0.0949
   62DOPC  H16X 8548   3.945   1.867   4.962  0.0708  0.6592 -1.9939
   62DOPC  H16Y 8549   3.779   1.930   4.993 -1.1582  1.4662 -2.9585
   62DOPC  C317 8550   3.787   1.722   4.983 -0.5346  0.5457  0.5790
   62DOPC  H17X 8551   3.815   1.707   5.090  1.3265 -0.3396  0.0002
   62DOPC  H17Y 8552   3.676   1.717   4.978 -0.5587 -0.2316  1.6004
   62DOPC  C318 8553   3.842   1.600   4.906 -0.8081 -0.6367 -0.0926
   62DOPC  H18X 8554   3.807   1.587   4.802 -0.4439 -0.7312 -0.2046
   62DOPC  H18Y 8555   3.951   1.614   4.892 -0.3420 -1.1921  2.4959
   62DOPC  H18Z 8556   3.835   1.509   4.969  2.6453 -0.8966  0.0633
   63DOPC     N 8557   3.345   0.518   5.699 -0.0704  0.1476 -0.2835
   63DOPC   C12 8558   3.482   0.532   5.636  0.2712 -0.0696  0.0771
   63DOPC  H12A 8559   3.517   0.440   5.592 -1.3408 -0.6140 -0.1428
   63DOPC  H12B 8560   3.549   0.551   5.718 -0.5222 -0.1362  0.7611
   63DOPC   C13 8561   3.319   0.392   5.777 -0.4235  0.7102  0.9699
   63DOPC  H13A 8562   3.326   0.308   5.709 -3.2684  1.0375  0.1333
   63DOPC  H13B 8563   3.382   0.394   5.864  0.1828 -0.5060  0.5776
   63DOPC  H13C 8564   3.215   0.397   5.806 -0.8272  0.8497 -0.4195
   63DOPC   C14 8565   3.243   0.542   5.593  0.2982 -0.2626 -0.6250
   63DOPC  H14A 8566   3.146   0.539   5.640  1.0991  1.9977  1.4173
   63DOPC  H14B 8567   3.261   0.637   5.544  0.0758  1.9417  3.1756
   63DOPC  H14C 8568   3.234   0.466   5.518 -2.7454 -0.2404 -0.3933
   63DOPC   C15 8569   3.317   0.637   5.786 -0.1418  0.3054  0.4223
   63DOPC  H15A 8570   3.328   0.735   5.743 -1.2758  0.5011  0.5463
   63DOPC  H15B 8571   3.386   0.633   5.869  1.6733 -0.2267 -1.0361
   63DOPC  H15C 8572   3.214   0.642   5.819 -0.5201  1.3260 -0.8353
   63DOPC   C11 8573   3.501   0.646   5.537 -0.2590  0.0912  0.3953
   63DOPC  H11A 8574   3.603   0.637   5.495 -0.9187  0.3566 -1.3498
   63DOPC  H11B 8575   3.452   0.618   5.441  2.4241  1.2982 -1.4415
   63DOPC     P 8576   3.391   0.877   5.494 -0.2589 -0.3913 -0.5698
   63DOPC   O13 8577   3.357   1.002   5.567 -0.0166  0.5334  0.4078
   63DOPC   O14 8578   3.271   0.811   5.435 -0.9186  0.0914  0.6890
   63DOPC   O12 8579   3.476   0.777   5.587 -0.1373  0.1263 -0.3748
   63DOPC   O11 8580   3.508   0.914   5.395 -0.6867 -0.0893 -0.5170
   63DOPC    C1 8581   3.616   0.988   5.440 -0.5784 -0.4491  0.4041
   63DOPC    HA 8582   3.665   0.944   5.530 -0.8085 -0.3114  0.5992
   63DOPC    HB 8583   3.591   1.095   5.458  0.0169  0.1105 -1.8471
   63DOPC    C2 8584   3.734   0.985   5.334 -0.1266  0.2057 -0.2504
   63DOPC    HS 8585   3.821   1.044   5.370 -0.8300  0.7314  0.6131
   63DOPC   O21 8586   3.683   1.034   5.203 -0.6989 -0.0449 -0.9635
   63DOPC   C21 8587   3.631   1.151   5.190 -0.3251  0.0253 -0.0300
   63DOPC   O22 8588   3.639   1.246   5.264 -0.2660 -0.0691  0.6546
   63DOPC   C22 8589   3.570   1.157   5.046  0.0773  0.6077 -0.7581
   63DOPC   H2R 8590   3.497   1.241   5.043  3.2364  3.6095 -1.6263
   63DOPC   H2S 8591   3.517   1.061   5.030 -0.7808  0.7405  1.0547
   63DOPC    C3 8592   3.760   0.827   5.323 -0.2288 -0.0566 -0.6733
   63DOPC    HX 8593   3.674   0.764   5.292 -0.2087  0.3860 -1.6493
   63DOPC    HY 8594   3.789   0.798   5.426 -0.2395 -1.1217 -0.9598
   63DOPC   O31 8595   3.881   0.807   5.247  0.5442 -0.3877 -0.2117
   63DOPC   C31 8596   3.855   0.767   5.119 -0.3555  0.1588 -0.1570
   63DOPC   O32 8597   3.746   0.759   5.075  0.0194  0.0109  0.1598
   63DOPC   C32 8598   3.986   0.726   5.038  0.4277  0.3134  0.1867
   63DOPC   H2X 8599   4.061   0.799   5.073  2.0198 -0.1556 -2.0936
   63DOPC   H2Y 8600   4.001   0.624   5.081  0.3400 -0.0766 -0.6918
   63DOPC   C23 8601   3.676   1.163   4.931  0.1374 -0.2307 -0.1253
   63DOPC   H3R 8602   3.751   1.093   4.974  0.0490  0.5126  1.3048
   63DOPC   H3S 8603   3.719   1.264   4.921 -0.8041  0.1310 -0.6452
   63DOPC   C24 8604   3.622   1.104   4.798  0.0957  0.0056  0.1700
   63DOPC   H4R 8605   3.522   1.151   4.783 -1.1101 -2.2462  0.6512
   63DOPC   H4S 8606   3.602   0.996   4.815 -0.4228 -0.2405 -1.8172
   63DOPC   C25 8607   3.719   1.126   4.681  0.5936  0.9673 -0.2908
   63DOPC   H5R 8608   3.700   1.041   4.611  2.1192 -0.9993  1.5414
   63DOPC   H5S 8609   3.819   1.103   4.724 -0.0871  1.3754  1.6085
   63DOPC   C26 8610   3.708   1.258   4.615 -0.2717 -0.4678  0.5366
   63DOPC   H6R 8611   3.702   1.340   4.689 -2.0310 -0.2059  0.1468
   63DOPC   H6S 8612   3.609   1.253   4.566 -0.6049 -3.1242  1.2969
   63DOPC   C27 8613   3.827   1.280   4.520 -0.6045 -0.2117 -0.2454
   63DOPC   H7R 8614   3.844   1.191   4.457  2.0087  0.0081  0.0594
   63DOPC   H7S 8615   3.919   1.286   4.581 -0.6770 -4.8576  0.6491
   63DOPC   C28 8616   3.807   1.403   4.421 -0.5528 -0.7964 -0.1493
   63DOPC   H8R 8617   3.710   1.397   4.366 -0.9137  0.4680  0.3257
   63DOPC   H8S 8618   3.885   1.408   4.343 -1.4373  0.8155 -0.9903
   63DOPC   C29 8619   3.793   1.533   4.508 -0.3838  0.7532  0.1416
   63DOPC   H9R 8620   3.700   1.542   4.565  0.7038  1.3294  1.8986
   63DOPC  C210 8621   3.875   1.641   4.512  0.2667 -0.4344  0.0898
   63DOPC  H10R 8622   3.838   1.726   4.571 -1.1884 -1.5017  0.8025
   63DOPC  C211 8623   4.002   1.646   4.431  0.0266 -0.0322 -0.1699
   63DOPC  H11R 8624   4.060   1.553   4.416  1.3219  0.5317  1.0894
   63DOPC  H11S 8625   4.082   1.699   4.488  1.3815 -0.9366 -1.1570
   63DOPC  C212 8626   4.003   1.720   4.293  0.0995  0.1444  0.4557
   63DOPC  H12R 8627   3.936   1.808   4.307 -1.0806 -0.5993 -0.3337
   63DOPC  H12S 8628   3.954   1.657   4.215 -0.7585  0.0225  1.0747
   63DOPC  C213 8629   4.143   1.754   4.243  0.4718 -0.1231 -0.5701
   63DOPC  H13R 8630   4.203   1.661   4.245  2.7081  1.2455  2.1893
   63DOPC  H13S 8631   4.186   1.824   4.318  0.8694 -1.7614  0.8020
   63DOPC  C214 8632   4.149   1.823   4.104 -0.3696  0.5471 -0.3620
   63DOPC  H14R 8633   4.096   1.920   4.114 -0.5219  0.3890  0.4406
   63DOPC  H14S 8634   4.092   1.765   4.028  0.4454  0.8464 -1.2213
   63DOPC  C215 8635   4.289   1.860   4.056 -0.1380 -0.2452  0.5574
   63DOPC  H15R 8636   4.358   1.774   4.067 -0.1729 -0.4485 -0.7254
   63DOPC  H15S 8637   4.324   1.947   4.117  2.1589 -0.3962 -0.4280
   63DOPC  C216 8638   4.294   1.907   3.913 -0.3057 -0.2598 -0.3414
   63DOPC  H16R 8639   4.247   2.005   3.892 -1.3833 -1.0675 -1.9765
   63DOPC  H16S 8640   4.239   1.835   3.848  0.2981 -0.7732 -0.2993
   63DOPC  C217 8641   4.440   1.914   3.856 -0.4749  0.1895 -0.1566
   63DOPC  H17R 8642   4.497   1.820   3.874  1.0310  0.8469 -1.2637
   63DOPC  H17S 8643   4.500   1.999   3.894 -1.3562  1.0682 -0.6929
   63DOPC  C218 8644   4.439   1.935   3.702 -0.0088  0.1491  0.4440
   63DOPC  H18R 8645   4.393   2.029   3.665 -1.9630 -0.7703  0.3789
   63DOPC  H18S 8646   4.411   1.840   3.650  0.3335 -0.2235  0.9222
   63DOPC  H18T 8647   4.547   1.943   3.677  0.0365  3.6061  1.3276
   63DOPC   C33 8648   3.973   0.710   4.884 -0.2945 -0.7126 -0.0768
   63DOPC   H3X 8649   3.870   0.670   4.873 -1.4070  0.9264  3.1705
   63DOPC   H3Y 8650   4.050   0.642   4.842  1.5903  0.4097  1.4294
   63DOPC   C34 8651   3.995   0.847   4.815  0.4177  0.4584  0.5336
   63DOPC   H4X 8652   4.099   0.885   4.827 -0.2237  2.0476  1.4788
   63DOPC   H4Y 8653   3.934   0.931   4.857 -1.2291  0.4657 -1.6962
   63DOPC   C35 8654   3.963   0.825   4.665  0.0890  0.2593  0.4273
   63DOPC   H5X 8655   3.860   0.853   4.634  0.5334  0.9556 -0.4503
   63DOPC   H5Y 8656   3.967   0.721   4.627  1.8064  0.6396 -0.5245
   63DOPC   C36 8657   4.049   0.905   4.569  0.0528 -0.2482 -0.2057
   63DOPC   H6X 8658   4.040   1.002   4.624 -0.8631 -1.2020  1.4081
   63DOPC   H6Y 8659   4.149   0.859   4.563 -1.1074 -3.3219  1.7172
   63DOPC   C37 8660   3.962   0.918   4.441 -0.0490  0.7026 -0.7635
   63DOPC   H7X 8661   3.913   0.825   4.405 -0.6845 -0.5313  2.9181
   63DOPC   H7Y 8662   3.872   0.981   4.460 -1.8756 -2.3585  1.6714
   63DOPC   C38 8663   4.052   0.974   4.326  0.2281 -0.2896  0.1872
   63DOPC   H8X 8664   4.125   1.045   4.372 -2.9045  2.7470  0.9234
   63DOPC   H8Y 8665   3.983   1.031   4.259  0.2478  0.5199  0.8374
   63DOPC   C39 8666   4.117   0.870   4.239  0.4175  0.0947 -0.6580
   63DOPC   H9X 8667   4.189   0.809   4.296  1.4175  2.6315  1.0127
   63DOPC  C310 8668   4.093   0.845   4.110  0.5164  0.1631  0.2070
   63DOPC  H10X 8669   4.147   0.758   4.070  0.7754  0.4555 -0.0855
   63DOPC  C311 8670   4.007   0.899   3.995 -0.2221  0.3429 -0.2553
   63DOPC  H11X 8671   3.961   0.992   4.033  0.1528  0.4309 -0.0157
   63DOPC  H11Y 8672   3.921   0.839   3.958  2.2575 -2.5732 -1.7560
   63DOPC  C312 8673   4.090   0.934   3.872  0.2145  0.1669 -0.3185
   63DOPC  H12X 8674   4.134   0.848   3.816 -0.1983 -0.5021  0.3643
   63DOPC  H12Y 8675   4.178   0.988   3.911  0.1804  0.0309 -0.0437
   63DOPC  C313 8676   4.014   1.020   3.765 -0.0180  0.2035  0.3191
   63DOPC  H13X 8677   3.934   0.961   3.716 -0.9178 -0.3500  2.3518
   63DOPC  H13Y 8678   3.968   1.106   3.818 -0.6491  0.0670 -0.0024
   63DOPC  C314 8679   4.110   1.090   3.669 -0.1485  0.2942  0.2089
   63DOPC  H14X 8680   4.184   1.144   3.731 -0.7317  0.6250  0.6250
   63DOPC  H14Y 8681   4.165   1.029   3.594 -0.8815 -2.3731  1.7136
   63DOPC  C315 8682   4.033   1.197   3.574 -0.4079  0.1640 -0.0991
   63DOPC  H15X 8683   4.105   1.242   3.503 -1.3636  0.8307 -0.6759
   63DOPC  H15Y 8684   4.008   1.265   3.658 -0.4720 -1.6112  1.4004
   63DOPC  C316 8685   3.897   1.149   3.515 -0.7283 -0.0020  0.2862
   63DOPC  H16X 8686   3.915   1.067   3.443 -0.4937 -0.2139  0.5866
   63DOPC  H16Y 8687   3.827   1.114   3.595 -1.9367 -2.1027 -1.5683
   63DOPC  C317 8688   3.822   1.257   3.431 -0.1539  0.5434  0.7554
   63DOPC  H17X 8689   3.890   1.295   3.352  0.8872  0.1005  1.4128
   63DOPC  H17Y 8690   3.739   1.204   3.382  1.9512 -1.8921 -0.4071
   63DOPC  C318 8691   3.769   1.373   3.519 -0.7285  0.1824 -0.1884
   63DOPC  H18X 8692   3.728   1.461   3.466 -0.7101 -0.2366 -0.9169
   63DOPC  H18Y 8693   3.690   1.335   3.588  1.0622 -2.2665  0.6863
   63DOPC  H18Z 8694   3.856   1.407   3.579  0.0479 -1.1567 -0.5033
   64DOPC     N 8695   6.146   1.656   6.096 -0.4634  0.6732  0.0142
   64DOPC   C12 8696   6.165   1.704   5.950 -0.7556  0.3915 -0.2541
   64DOPC  H12A 8697   6.266   1.696   5.914 -0.5569  2.7395 -0.3332
   64DOPC  H12B 8698   6.136   1.808   5.945  0.7822  0.7914 -1.5325
   64DOPC   C13 8699   6.264   1.705   6.183  0.4082  0.4704  0.3442
   64DOPC  H13A 8700   6.341   1.630   6.177  0.8767  0.9668  0.0333
   64DOPC  H13B 8701   6.303   1.801   6.151  1.8354 -0.9044 -2.3948
   64DOPC  H13C 8702   6.228   1.717   6.284 -0.3344 -1.8312  0.3993
   64DOPC   C14 8703   6.138   1.509   6.104  0.6814  0.0153  0.1614
   64DOPC  H14A 8704   6.232   1.460   6.080  1.6527  2.0201 -0.3944
   64DOPC  H14B 8705   6.107   1.478   6.202  0.1922  0.0248  0.0095
   64DOPC  H14C 8706   6.060   1.477   6.037 -0.2797  0.4596  1.0497
   64DOPC   C15 8707   6.027   1.718   6.156 -0.7198 -0.0834  0.3790
   64DOPC  H15A 8708   6.015   1.709   6.263 -0.5004  2.4719  0.6808
   64DOPC  H15B 8709   5.937   1.690   6.104 -1.6982  1.7468  0.9880
   64DOPC  H15C 8710   6.039   1.825   6.148 -3.9615  0.2428 -3.7752
   64DOPC   C11 8711   6.078   1.636   5.837  0.2196  0.1806 -0.4165
   64DOPC  H11A 8712   6.098   1.687   5.740 -1.2182 -0.4751 -1.0866
   64DOPC  H11B 8713   6.111   1.531   5.824 -0.1847  0.3531 -3.9354
   64DOPC     P 8714   5.853   1.765   5.846 -0.0175  0.0896 -0.5993
   64DOPC   O13 8715   5.917   1.895   5.885  0.7346  0.1978  0.3116
   64DOPC   O14 8716   5.725   1.730   5.911 -0.5350 -0.1345 -0.0029
   64DOPC   O12 8717   5.940   1.635   5.873 -0.5607 -0.1967 -0.5571
   64DOPC   O11 8718   5.838   1.764   5.687 -0.0971 -0.3081  0.5170
   64DOPC    C1 8719   5.754   1.675   5.614  0.1079  0.3446 -0.5062
   64DOPC    HA 8720   5.694   1.739   5.546  2.1908  2.5302 -0.4323
   64DOPC    HB 8721   5.680   1.620   5.676  2.2891 -3.7246 -1.2260
   64DOPC    C2 8722   5.842   1.571   5.530 -0.4327 -0.6988 -0.4646
   64DOPC    HS 8723   5.918   1.526   5.597 -0.5828  0.8295  0.7898
   64DOPC   O21 8724   5.905   1.655   5.430 -0.5111 -0.0113 -0.3667
   64DOPC   C21 8725   6.006   1.600   5.364  0.0348 -0.2555 -0.6817
   64DOPC   O22 8726   6.059   1.495   5.385 -0.2841  0.0080  0.6391
   64DOPC   C22 8727   6.058   1.717   5.271  0.6524  0.5229  0.5109
   64DOPC   H2R 8728   6.113   1.793   5.332  2.3894 -0.0693 -0.2661
   64DOPC   H2S 8729   5.967   1.776   5.248  0.4271 -0.1401 -0.3273
   64DOPC    C3 8730   5.756   1.460   5.468 -0.0608  0.6922  0.4928
   64DOPC    HX 8731   5.695   1.416   5.550  0.4886  2.5212  1.9336
   64DOPC    HY 8732   5.829   1.387   5.426  1.0419  1.4007  1.1216
   64DOPC   O31 8733   5.674   1.516   5.370  0.3039  0.0721 -0.4429
   64DOPC   C31 8734   5.649   1.441   5.262  0.2665  0.1480 -0.2847
   64DOPC   O32 8735   5.689   1.326   5.250 -0.1601  0.1676 -0.9552
   64DOPC   C32 8736   5.560   1.524   5.165 -0.6498 -0.2083 -0.2887
   64DOPC   H2X 8737   5.453   1.511   5.193 -0.0807  0.3140  2.3930
   64DOPC   H2Y 8738   5.589   1.629   5.188  1.0739 -0.7911  0.3890
   64DOPC   C23 8739   6.125   1.675   5.146  0.5342 -0.4155 -0.0641
   64DOPC   H3R 8740   6.210   1.604   5.157  0.8113  0.0788  1.2128
   64DOPC   H3S 8741   6.154   1.763   5.084  0.9944  0.8514  1.8608
   64DOPC   C24 8742   6.030   1.585   5.059 -0.2831 -0.5414  1.1111
   64DOPC   H4R 8743   5.923   1.605   5.081 -0.8554 -2.9350  0.8418
   64DOPC   H4S 8744   6.060   1.479   5.076  2.3803  0.3688  2.5618
   64DOPC   C25 8745   6.054   1.621   4.907  0.0066  0.4196  0.1568
   64DOPC   H5R 8746   6.157   1.596   4.875  0.2386 -0.4497  1.5316
   64DOPC   H5S 8747   6.032   1.730   4.900  0.9478  0.6299  0.3323
   64DOPC   C26 8748   5.958   1.534   4.815 -0.1047 -0.0238 -0.0691
   64DOPC   H6R 8749   5.858   1.577   4.838  1.5250  3.8680  0.6434
   64DOPC   H6S 8750   5.969   1.427   4.842  0.2458  0.2750  1.0351
   64DOPC   C27 8751   5.980   1.558   4.668 -0.5544 -0.6545 -0.5442
   64DOPC   H7R 8752   6.086   1.533   4.644 -0.1489 -0.1681  0.7018
   64DOPC   H7S 8753   5.977   1.668   4.652 -0.4170 -0.7097 -0.9808
   64DOPC   C28 8754   5.889   1.490   4.572 -0.4324 -0.9082 -0.7155
   64DOPC   H8R 8755   5.924   1.531   4.475 -1.3570  2.7390  0.3432
   64DOPC   H8S 8756   5.786   1.522   4.596 -1.2304 -3.2953 -0.7170
   64DOPC   C29 8757   5.867   1.340   4.561  0.2199  0.3314  0.6429
   64DOPC   H9R 8758   5.796   1.309   4.639 -2.5551  2.1211 -1.0011
   64DOPC  C210 8759   5.919   1.253   4.473  0.8464  0.2112 -0.6123
   64DOPC  H10R 8760   5.890   1.147   4.466 -1.7466  0.8599 -0.6740
   64DOPC  C211 8761   6.015   1.297   4.365  0.2166  0.5767  0.1548
   64DOPC  H11R 8762   6.091   1.217   4.352 -1.4499 -1.2492  1.0884
   64DOPC  H11S 8763   6.059   1.398   4.376 -0.4693  0.7701  1.3273
   64DOPC  C212 8764   5.948   1.284   4.224  0.2585 -0.6973 -0.2247
   64DOPC  H12R 8765   6.025   1.336   4.163 -1.2028  2.1541  0.1418
   64DOPC  H12S 8766   5.851   1.340   4.229  0.3739 -0.5824  0.9292
   64DOPC  C213 8767   5.926   1.149   4.164  0.6867  0.2059 -0.5079
   64DOPC  H13R 8768   5.859   1.094   4.234 -0.8732  1.8886 -0.6148
   64DOPC  H13S 8769   6.028   1.104   4.166 -0.4010 -2.3768  0.8420
   64DOPC  C214 8770   5.879   1.149   4.012 -0.6400 -0.2457 -0.1404
   64DOPC  H14R 8771   5.950   1.195   3.940 -1.0996  0.5486 -0.0998
   64DOPC  H14S 8772   5.783   1.205   4.015 -0.4662  0.0785 -0.6542
   64DOPC  C215 8773   5.845   1.006   3.961  0.4661 -0.3319 -0.0906
   64DOPC  H15R 8774   5.784   0.953   4.038 -1.8086  0.8039 -1.0160
   64DOPC  H15S 8775   5.944   0.957   3.950  0.3949 -0.7764  1.0406
   64DOPC  C216 8776   5.763   1.006   3.829 -0.0513  0.0341  0.6873
   64DOPC  H16R 8777   5.806   1.064   3.745 -0.6316 -2.2621 -1.3061
   64DOPC  H16S 8778   5.661   1.040   3.857 -0.1370  0.4406 -0.1114
   64DOPC  C217 8779   5.772   0.864   3.779 -0.8024 -0.8378 -0.1866
   64DOPC  H17R 8780   5.739   0.800   3.863 -1.3670 -1.2362 -0.7001
   64DOPC  H17S 8781   5.880   0.844   3.765 -0.6415 -0.4689  0.4938
   64DOPC  C218 8782   5.692   0.836   3.648 -0.0476 -0.1864 -0.2106
   64DOPC  H18R 8783   5.727   0.731   3.635  1.1721  0.3061 -1.1772
   64DOPC  H18S 8784   5.731   0.894   3.562  2.0369 -0.5408  0.4388
   64DOPC  H18T 8785   5.584   0.847   3.670 -0.0619  3.7393 -1.5602
   64DOPC   C33 8786   5.584   1.485   5.021  0.7124  0.6397  0.1711
   64DOPC   H3X 8787   5.560   1.378   5.005  1.6790  0.0357  2.4521
   64DOPC   H3Y 8788   5.692   1.488   4.996  0.8088 -2.2478 -0.0945
   64DOPC   C34 8789   5.502   1.561   4.920  0.1144 -0.0288 -0.2133
   64DOPC   H4X 8790   5.537   1.667   4.919  0.5749 -0.1791 -0.3870
   64DOPC   H4Y 8791   5.393   1.554   4.941  0.2492 -0.8955  0.2214
   64DOPC   C35 8792   5.517   1.510   4.775  0.1986  0.5867 -0.0024
   64DOPC   H5X 8793   5.623   1.527   4.747  0.1847 -0.1114 -0.4975
   64DOPC   H5Y 8794   5.451   1.574   4.713  1.5418  1.7249 -0.3145
   64DOPC   C36 8795   5.481   1.356   4.774  0.0894 -0.6094  0.5493
   64DOPC   H6X 8796   5.572   1.307   4.813  2.2614  1.9914 -0.9001
   64DOPC   H6Y 8797   5.388   1.339   4.833 -0.3631  0.5603  0.1964
   64DOPC   C37 8798   5.450   1.304   4.627  0.1569  0.2703 -0.4388
   64DOPC   H7X 8799   5.537   1.343   4.571  0.7767 -1.7573 -0.9634
   64DOPC   H7Y 8800   5.442   1.195   4.645 -2.0144  0.7903  2.6146
   64DOPC   C38 8801   5.318   1.348   4.565  0.2713 -0.3047  0.4738
   64DOPC   H8X 8802   5.334   1.452   4.530 -3.3752 -0.2840 -1.6640
   64DOPC   H8Y 8803   5.248   1.361   4.651 -2.1798  0.4431 -1.4973
   64DOPC   C39 8804   5.257   1.259   4.463 -0.3387 -0.6277 -0.4288
   64DOPC   H9X 8805   5.188   1.179   4.492  1.2773 -1.7164  0.5702
   64DOPC  C310 8806   5.280   1.264   4.334 -0.0323 -0.0069 -0.2981
   64DOPC  H10X 8807   5.250   1.169   4.287  1.9947 -1.2545  0.8029
   64DOPC  C311 8808   5.359   1.369   4.252  0.2662  0.3783  0.2151
   64DOPC  H11X 8809   5.465   1.338   4.241  0.7445  2.2617 -0.9816
   64DOPC  H11Y 8810   5.368   1.462   4.313 -0.7787  0.4411  0.2793
   64DOPC  C312 8811   5.292   1.401   4.118  0.1498 -0.3312  0.4441
   64DOPC  H12X 8812   5.189   1.442   4.129 -0.2587 -1.0812 -0.4295
   64DOPC  H12Y 8813   5.267   1.314   4.053 -1.3330 -1.0055  1.8453
   64DOPC  C313 8814   5.377   1.506   4.042  0.1632 -0.8039  0.4871
   64DOPC  H13X 8815   5.388   1.594   4.110  1.8303 -0.5731 -0.0309
   64DOPC  H13Y 8816   5.480   1.478   4.014  1.8197  0.9877  4.0956
   64DOPC  C314 8817   5.297   1.575   3.924 -0.1283  0.0595 -0.0141
   64DOPC  H14X 8818   5.281   1.496   3.848 -0.3828 -0.4503  0.5545
   64DOPC  H14Y 8819   5.202   1.603   3.976  0.4535 -0.1987  1.2360
   64DOPC  C315 8820   5.357   1.701   3.854 -0.0453  0.0240 -0.1302
   64DOPC  H15X 8821   5.391   1.762   3.941 -1.3253 -0.3279  0.6422
   64DOPC  H15Y 8822   5.276   1.753   3.797  0.5966  0.5145 -0.6148
   64DOPC  C316 8823   5.464   1.675   3.743 -0.2329  1.1308  0.0113
   64DOPC  H16X 8824   5.558   1.643   3.794  0.0337  0.0072 -1.1314
   64DOPC  H16Y 8825   5.434   1.586   3.685 -2.8300  1.4860  0.6997
   64DOPC  C317 8826   5.489   1.797   3.654 -0.3192  0.1961  0.8178
   64DOPC  H17X 8827   5.395   1.831   3.605  1.2437  0.0375 -2.5164
   64DOPC  H17Y 8828   5.530   1.888   3.704 -1.0280  0.9105  0.1202
   64DOPC  C318 8829   5.597   1.760   3.545  0.3752 -0.3404  0.2438
   64DOPC  H18X 8830   5.572   1.668   3.487 -0.0801 -0.8945  1.2941
   64DOPC  H18Y 8831   5.610   1.836   3.465  1.6803 -1.9194 -1.1460
   64DOPC  H18Z 8832   5.695   1.741   3.594  0.8258 -2.1904 -1.2303
   65DOPC     N 8833   2.173   3.456   5.400 -0.0562  0.4344 -0.4136
   65DOPC   C12 8834   2.098   3.366   5.306  0.1184 -0.5040  0.7164
   65DOPC  H12A 8835   2.095   3.270   5.356  0.0565 -1.3399 -0.8300
   65DOPC  H12B 8836   2.150   3.348   5.213 -1.9995  2.5552 -1.2695
   65DOPC   C13 8837   2.304   3.396   5.462  0.5911  0.6417 -0.0574
   65DOPC  H13A 8838   2.384   3.369   5.394  0.6259 -0.6131  0.4663
   65DOPC  H13B 8839   2.334   3.471   5.534 -0.7908  0.2247  0.9947
   65DOPC  H13C 8840   2.279   3.313   5.526  1.1180  1.2677  0.9828
   65DOPC   C14 8841   2.082   3.505   5.512 -0.7400  0.2293  0.0539
   65DOPC  H14A 8842   2.065   3.422   5.579  1.0340 -0.1160  0.1379
   65DOPC  H14B 8843   2.118   3.594   5.560  0.4211  0.5004 -1.2591
   65DOPC  H14C 8844   1.990   3.528   5.461  0.2046  0.5242 -1.6095
   65DOPC   C15 8845   2.234   3.565   5.324  0.1581  0.6162 -0.2406
   65DOPC  H15A 8846   2.304   3.626   5.379  0.4098 -0.2823  0.4604
   65DOPC  H15B 8847   2.155   3.629   5.288  0.8717  1.4389 -0.3682
   65DOPC  H15C 8848   2.300   3.530   5.246  0.5044  3.4413 -1.3290
   65DOPC   C11 8849   1.952   3.397   5.275 -1.0074  0.8016  0.0117
   65DOPC  H11A 8850   1.930   3.505   5.264 -1.0931  1.1394  2.9444
   65DOPC  H11B 8851   1.919   3.352   5.179  1.5645  0.2053 -0.6862
   65DOPC     P 8852   1.864   3.192   5.414 -0.3260 -0.2654 -0.0181
   65DOPC   O13 8853   1.741   3.180   5.494  0.0396 -0.9530  0.1530
   65DOPC   O14 8854   1.992   3.156   5.478 -0.1200 -0.2714 -0.4476
   65DOPC   O12 8855   1.869   3.340   5.379  0.4141  0.1574  0.1187
   65DOPC   O11 8856   1.839   3.116   5.281  0.4702  0.4642 -0.0107
   65DOPC    C1 8857   1.711   3.115   5.214 -0.4589 -0.2653  0.4204
   65DOPC    HA 8858   1.680   3.221   5.198  0.6746  0.2641  1.6125
   65DOPC    HB 8859   1.633   3.055   5.266 -0.4360 -1.8535 -1.2928
   65DOPC    C2 8860   1.726   3.058   5.068 -1.2108 -0.1671 -0.6791
   65DOPC    HS 8861   1.746   2.950   5.080 -2.1988 -0.3263 -0.4263
   65DOPC   O21 8862   1.843   3.120   4.999 -0.6834  0.8197  0.0535
   65DOPC   C21 8863   1.924   3.050   4.925  0.5429  0.3501 -0.0295
   65DOPC   O22 8864   1.904   2.930   4.901  0.1454 -0.6239 -1.0197
   65DOPC   C22 8865   2.021   3.145   4.849  0.3892 -0.1644 -0.2908
   65DOPC   H2R 8866   2.099   3.080   4.805  0.6899 -0.0206  0.0182
   65DOPC   H2S 8867   2.078   3.204   4.925  0.1294 -1.2107  0.7491
   65DOPC    C3 8868   1.600   3.077   4.978 -0.2186  0.4797 -0.3485
   65DOPC    HX 8869   1.583   3.187   4.974  0.8085  0.6431 -0.5032
   65DOPC    HY 8870   1.512   3.029   5.025  1.7972 -1.5560  1.6020
   65DOPC   O31 8871   1.624   3.037   4.838 -0.1088  0.0609  0.6890
   65DOPC   C31 8872   1.612   2.910   4.804  0.8244 -0.0250  0.8412
   65DOPC   O32 8873   1.588   2.820   4.882  0.4206 -0.1244  0.1329
   65DOPC   C32 8874   1.639   2.897   4.660  0.3280  0.1119 -0.3438
   65DOPC   H2X 8875   1.567   2.963   4.607 -1.2601  0.3929  2.0015
   65DOPC   H2Y 8876   1.744   2.925   4.637  0.8717 -2.4713 -1.2985
   65DOPC   C23 8877   1.958   3.243   4.752  0.5409  0.4837  1.0800
   65DOPC   H3R 8878   2.033   3.323   4.735 -0.4089  1.0705 -0.5511
   65DOPC   H3S 8879   1.873   3.296   4.801 -0.8652 -0.0194 -0.7023
   65DOPC   C24 8880   1.913   3.180   4.619 -0.5083 -0.1742  0.2838
   65DOPC   H4R 8881   1.840   3.098   4.637 -0.3673 -0.8961 -2.0918
   65DOPC   H4S 8882   1.988   3.126   4.558 -0.7630 -0.7456  0.4734
   65DOPC   C25 8883   1.838   3.277   4.523  0.3532 -0.2190  0.7651
   65DOPC   H5R 8884   1.903   3.366   4.511 -3.4983  2.6355 -0.9332
   65DOPC   H5S 8885   1.750   3.327   4.568  0.8953 -1.4560  3.4001
   65DOPC   C26 8886   1.813   3.218   4.387 -0.5585  0.9278  0.8106
   65DOPC   H6R 8887   1.705   3.196   4.371 -0.3600 -0.0718  0.7562
   65DOPC   H6S 8888   1.880   3.132   4.365  0.9319  2.1484  0.4085
   65DOPC   C27 8889   1.838   3.321   4.282 -0.3078  0.5746  0.4168
   65DOPC   H7R 8890   1.947   3.343   4.276  0.3227 -2.1054  0.4973
   65DOPC   H7S 8891   1.800   3.423   4.305 -2.6647 -0.1169 -0.1233
   65DOPC   C28 8892   1.794   3.282   4.138 -0.1590 -0.1225 -0.6232
   65DOPC   H8R 8893   1.797   3.369   4.068  0.8881  1.9425  1.7974
   65DOPC   H8S 8894   1.689   3.246   4.137 -0.4767  0.7664 -0.2044
   65DOPC   C29 8895   1.876   3.170   4.088  0.4179  0.5757  0.0735
   65DOPC   H9R 8896   1.981   3.202   4.083  0.3971  1.1187  2.1266
   65DOPC  C210 8897   1.844   3.044   4.072 -0.1531 -0.4358  0.3491
   65DOPC  H10R 8898   1.924   2.981   4.030  1.6764  2.9590 -1.6782
   65DOPC  C211 8899   1.704   2.979   4.095 -0.6229 -0.5128 -0.0031
   65DOPC  H11R 8900   1.630   3.050   4.139  2.6291  2.1656  1.6789
   65DOPC  H11S 8901   1.723   2.902   4.173 -1.4503  2.0826  2.9943
   65DOPC  C212 8902   1.650   2.915   3.973 -0.1364  0.6771  0.2318
   65DOPC  H12R 8903   1.629   2.996   3.900  1.9874  0.2525 -0.9411
   65DOPC  H12S 8904   1.554   2.873   4.009  0.6891 -0.9640  0.6247
   65DOPC  C213 8905   1.745   2.805   3.907 -0.5848  0.1381 -0.1253
   65DOPC  H13R 8906   1.784   2.737   3.986  0.0712  0.2690 -0.3237
   65DOPC  H13S 8907   1.835   2.862   3.874  0.0956 -0.0023  1.3581
   65DOPC  C214 8908   1.688   2.718   3.798 -0.5309  0.0212 -0.8245
   65DOPC  H14R 8909   1.640   2.636   3.856 -1.1976  1.3239  0.5345
   65DOPC  H14S 8910   1.774   2.673   3.743 -0.6828 -1.0087 -0.2630
   65DOPC  C215 8911   1.601   2.786   3.697  0.9192 -0.1029 -0.2214
   65DOPC  H15R 8912   1.520   2.835   3.755  1.0594 -0.8403  0.6181
   65DOPC  H15S 8913   1.555   2.714   3.626 -0.6917  0.3093  0.3379
   65DOPC  C216 8914   1.670   2.892   3.616  0.4828 -0.8221  0.2001
   65DOPC  H16R 8915   1.742   2.846   3.545 -0.7830 -2.7624  0.0811
   65DOPC  H16S 8916   1.725   2.949   3.694  0.1404 -0.8534  0.4668
   65DOPC  C217 8917   1.579   2.993   3.540  0.3536 -0.1323 -0.0448
   65DOPC  H17R 8918   1.646   3.068   3.492 -0.9002  1.1788  0.1978
   65DOPC  H17S 8919   1.524   3.054   3.614 -0.2369 -0.1426 -0.4642
   65DOPC  C218 8920   1.483   2.922   3.443  0.4131 -0.0046 -0.2891
   65DOPC  H18R 8921   1.426   2.839   3.490 -0.5072  1.3172  1.0257
   65DOPC  H18S 8922   1.543   2.884   3.358  1.9369 -0.5538  0.9951
   65DOPC  H18T 8923   1.409   2.995   3.404  0.4769 -0.4365 -1.2468
   65DOPC   C33 8924   1.610   2.757   4.605 -0.4381 -0.1301  0.6085
   65DOPC   H3X 8925   1.513   2.723   4.648  0.2744  0.7667  3.1161
   65DOPC   H3Y 8926   1.688   2.688   4.644 -0.8771 -1.7636 -1.2191
   65DOPC   C34 8927   1.637   2.750   4.455  0.6371 -0.0289 -0.0671
   65DOPC   H4X 8928   1.723   2.815   4.428  1.3140 -1.5766 -1.8882
   65DOPC   H4Y 8929   1.549   2.788   4.399  0.5031  0.6409  0.5822
   65DOPC   C35 8930   1.659   2.605   4.414 -0.6129  0.9347  0.6564
   65DOPC   H5X 8931   1.588   2.528   4.450 -1.0482  2.1341  2.5186
   65DOPC   H5Y 8932   1.759   2.581   4.457  0.9177  0.4652 -2.8316
   65DOPC   C36 8933   1.674   2.591   4.253 -1.1773 -0.0124 -0.4699
   65DOPC   H6X 8934   1.568   2.604   4.223 -1.4057 -2.0389 -0.6721
   65DOPC   H6Y 8935   1.750   2.664   4.218 -1.3168  1.3651  1.8505
   65DOPC   C37 8936   1.715   2.447   4.218  0.5067  0.2013  0.3039
   65DOPC   H7X 8937   1.825   2.442   4.213  0.4540  0.1422 -1.4419
   65DOPC   H7Y 8938   1.684   2.382   4.302  0.2479  0.3152  0.3007
   65DOPC   C38 8939   1.657   2.402   4.077  0.7388 -0.5809  0.4237
   65DOPC   H8X 8940   1.694   2.478   4.005 -2.3232  0.3091 -0.3978
   65DOPC   H8Y 8941   1.546   2.410   4.069  0.8414  0.3121 -0.2671
   65DOPC   C39 8942   1.705   2.272   4.025  0.3168  0.3663 -0.8329
   65DOPC   H9X 8943   1.681   2.187   4.091 -0.1286 -0.9600 -2.6163
   65DOPC  C310 8944   1.761   2.240   3.911 -0.6739  1.1755  0.3056
   65DOPC  H10X 8945   1.784   2.135   3.886  3.0908  1.7434  0.7262
   65DOPC  C311 8946   1.773   2.328   3.787  1.2179 -0.3074 -0.3200
   65DOPC  H11X 8947   1.699   2.409   3.806  1.3873 -0.5237  1.4576
   65DOPC  H11Y 8948   1.740   2.267   3.701 -1.9926  1.7607 -0.7561
   65DOPC  C312 8949   1.914   2.375   3.755 -0.6325  0.1696  0.8088
   65DOPC  H12X 8950   1.988   2.291   3.765  0.3871  0.8669 -0.4950
   65DOPC  H12Y 8951   1.922   2.455   3.831 -1.1251  2.3979 -1.3757
   65DOPC  C313 8952   1.927   2.439   3.610  1.0676  0.2656 -0.4099
   65DOPC  H13X 8953   1.848   2.515   3.596 -1.3190 -2.0726 -0.5247
   65DOPC  H13Y 8954   2.029   2.475   3.584  3.0073 -3.7358  0.8466
   65DOPC  C314 8955   1.900   2.348   3.485  0.1168  0.1865  0.5008
   65DOPC  H14X 8956   1.981   2.272   3.483  0.6168  0.5257  3.4435
   65DOPC  H14Y 8957   1.806   2.289   3.486 -0.5616  1.2375  0.7015
   65DOPC  C315 8958   1.902   2.427   3.353 -0.1600  0.0936 -0.2433
   65DOPC  H15X 8959   1.996   2.487   3.360  1.0709 -1.9410  2.5648
   65DOPC  H15Y 8960   1.810   2.488   3.364 -1.9618 -2.5175  0.0505
   65DOPC  C316 8961   1.894   2.337   3.232 -0.3184  0.5023 -0.3072
   65DOPC  H16X 8962   1.930   2.234   3.255  1.3412  1.1623  0.2370
   65DOPC  H16Y 8963   1.789   2.318   3.203  0.6370 -2.5263 -2.2155
   65DOPC  C317 8964   1.975   2.397   3.114  1.2193  0.1139  0.2489
   65DOPC  H17X 8965   1.947   2.504   3.102 -1.9623 -0.7451 -1.1050
   65DOPC  H17Y 8966   2.083   2.393   3.138  1.2756  0.6552  0.0859
   65DOPC  C318 8967   1.936   2.315   2.984 -0.7289 -0.1631 -0.3171
   65DOPC  H18X 8968   1.917   2.206   2.992 -3.4303  0.2068 -0.7235
   65DOPC  H18Y 8969   1.838   2.359   2.955  0.5855  2.1937 -1.5039
   65DOPC  H18Z 8970   2.009   2.331   2.902  0.4272 -1.3416  0.4561
   66DOPC     N 8971   0.932   4.580   5.434 -0.1679  0.2187  0.1719
   66DOPC   C12 8972   0.919   4.611   5.283  0.2507 -0.2276  0.1816
   66DOPC  H12A 8973   0.822   4.650   5.258  0.2078 -0.3692  0.1243
   66DOPC  H12B 8974   0.918   4.517   5.230  2.8140 -0.4268  0.3464
   66DOPC   C13 8975   0.941   4.708   5.514  0.2553  0.5163 -0.4661
   66DOPC  H13A 8976   0.862   4.775   5.482  1.4185  1.9647 -0.3921
   66DOPC  H13B 8977   0.950   4.684   5.619  1.3254 -0.1645 -0.7041
   66DOPC  H13C 8978   1.031   4.760   5.485  0.4022 -0.6829 -2.3457
   66DOPC   C14 8979   1.052   4.502   5.464 -0.6687 -0.5810 -0.1474
   66DOPC  H14A 8980   1.134   4.542   5.407 -0.0020 -0.7382  0.6763
   66DOPC  H14B 8981   1.084   4.525   5.565  0.1086 -2.0461 -0.0328
   66DOPC  H14C 8982   1.048   4.397   5.440  0.3940 -1.0369  1.4673
   66DOPC   C15 8983   0.821   4.492   5.480  0.4507  0.1105 -0.8069
   66DOPC  H15A 8984   0.812   4.396   5.432 -1.3851 -0.4624  0.5557
   66DOPC  H15B 8985   0.729   4.549   5.476 -0.3716 -1.2064 -1.8657
   66DOPC  H15C 8986   0.845   4.463   5.581  0.2107 -0.3828 -0.8859
   66DOPC   C11 8987   1.029   4.709   5.212 -0.4181  0.2141 -0.1354
   66DOPC  H11A 8988   1.126   4.662   5.243 -1.0381 -0.0175  1.5576
   66DOPC  H11B 8989   1.023   4.696   5.102 -2.3890 -1.8430  0.1456
   66DOPC     P 8990   0.911   4.950   5.211 -0.2678 -0.0984 -0.3438
   66DOPC   O13 8991   0.959   5.079   5.262 -0.1000  0.6581 -0.1242
   66DOPC   O14 8992   0.776   4.909   5.256  0.3014  0.6465 -0.1211
   66DOPC   O12 8993   1.021   4.847   5.253  0.5320 -0.2983  0.4093
   66DOPC   O11 8994   0.912   4.949   5.062  0.3155 -0.4308 -0.5156
   66DOPC    C1 8995   1.023   4.945   4.969  0.2289  0.1183  0.0892
   66DOPC    HA 8996   0.987   4.903   4.873 -1.8150 -0.0561  0.8935
   66DOPC    HB 8997   1.110   4.888   5.009  1.0830  1.0502 -0.3752
   66DOPC    C2 8998   1.062   5.095   4.934 -0.3664 -0.4082 -0.8680
   66DOPC    HS 8999   1.069   5.142   5.035  0.0286  0.3620 -1.2429
   66DOPC   O21 9000   0.953   5.149   4.848  0.0955 -0.0750 -0.6896
   66DOPC   C21 9001   0.965   5.282   4.851 -0.0140  0.7635  0.0068
   66DOPC   O22 9002   1.035   5.345   4.925  0.5862 -0.3196  0.1280
   66DOPC   C22 9003   0.852   5.346   4.770 -1.0339 -0.0388  0.0668
   66DOPC   H2R 9004   0.857   5.456   4.774 -2.3734  0.0913 -0.9809
   66DOPC   H2S 9005   0.754   5.312   4.809 -2.4012  2.3298 -1.1351
   66DOPC    C3 9006   1.201   5.106   4.866 -0.0180 -0.5121  0.0745
   66DOPC    HX 9007   1.282   5.057   4.925 -0.4164 -0.2252  0.8689
   66DOPC    HY 9008   1.231   5.213   4.865 -0.0580 -0.5020 -0.1351
   66DOPC   O31 9009   1.200   5.057   4.728 -0.0231 -0.2807 -0.5321
   66DOPC   C31 9010   1.232   4.929   4.712 -0.0430 -0.3226  0.2012
   66DOPC   O32 9011   1.300   4.868   4.785 -0.5036  0.4896 -0.2955
   66DOPC   C32 9012   1.189   4.878   4.574  0.6927 -0.3250 -0.1008
   66DOPC   H2X 9013   1.104   4.941   4.541  0.8307 -0.1444 -0.1138
   66DOPC   H2Y 9014   1.272   4.881   4.500  0.1013 -1.3238 -0.8189
   66DOPC   C23 9015   0.855   5.294   4.627 -0.1809  0.0590 -0.1001
   66DOPC   H3R 9016   0.757   5.320   4.582  0.6192 -0.4649 -2.2476
   66DOPC   H3S 9017   0.872   5.184   4.623  2.6324  0.3217  1.7226
   66DOPC   C24 9018   0.963   5.348   4.532 -0.1411  0.3234 -0.6947
   66DOPC   H4R 9019   0.969   5.458   4.541 -0.3630  0.4372 -1.7519
   66DOPC   H4S 9020   0.939   5.329   4.425 -0.7569  2.8072 -1.0651
   66DOPC   C25 9021   1.105   5.296   4.550  0.2643  0.8861  0.5026
   66DOPC   H5R 9022   1.094   5.186   4.553 -3.0191  1.1430  2.0387
   66DOPC   H5S 9023   1.137   5.321   4.653  0.9646  0.1320  0.4825
   66DOPC   C26 9024   1.206   5.344   4.443 -0.3696 -0.3143  0.1300
   66DOPC   H6R 9025   1.220   5.452   4.463  1.4041 -0.9661  3.0805
   66DOPC   H6S 9026   1.164   5.337   4.341  0.4000  1.1941 -0.3166
   66DOPC   C27 9027   1.344   5.283   4.437 -1.3115  0.6324  0.6782
   66DOPC   H7R 9028   1.340   5.191   4.374  1.4974 -0.2816  1.6719
   66DOPC   H7S 9029   1.384   5.248   4.535  0.4790  0.5106 -0.0661
   66DOPC   C28 9030   1.456   5.376   4.379  0.4542  0.4628  0.5788
   66DOPC   H8R 9031   1.549   5.327   4.415  1.5891  1.1207 -1.3246
   66DOPC   H8S 9032   1.460   5.470   4.439  3.6775 -0.1069  1.4636
   66DOPC   C29 9033   1.452   5.394   4.231 -0.5656 -0.9468 -0.0543
   66DOPC   H9R 9034   1.381   5.470   4.197  1.3078  1.4344  1.0728
   66DOPC  C210 9035   1.538   5.335   4.141 -0.0692 -0.8116  1.0223
   66DOPC  H10R 9036   1.521   5.368   4.037  1.3391 -1.3030  0.6146
   66DOPC  C211 9037   1.650   5.235   4.168  0.6656  0.0737  0.4274
   66DOPC  H11R 9038   1.639   5.154   4.093  2.5656 -0.4777  0.7063
   66DOPC  H11S 9039   1.639   5.181   4.265  0.8527 -1.8864 -0.5884
   66DOPC  C212 9040   1.791   5.288   4.169  0.4730 -0.8895 -0.9232
   66DOPC  H12R 9041   1.797   5.363   4.251  1.1542  0.6658 -2.3331
   66DOPC  H12S 9042   1.817   5.344   4.077 -0.0068  0.4948 -0.2389
   66DOPC  C213 9043   1.891   5.181   4.205 -0.4323  0.1542 -0.7712
   66DOPC  H13R 9044   1.867   5.146   4.307  1.9879 -0.0782 -0.2314
   66DOPC  H13S 9045   1.990   5.226   4.225 -1.9024  3.7713 -0.9437
   66DOPC  C214 9046   1.894   5.056   4.112  0.4584  0.2903  0.1399
   66DOPC  H14R 9047   1.806   4.989   4.125  0.3460  0.4501  0.2084
   66DOPC  H14S 9048   1.989   5.008   4.145  1.1394  1.3663 -0.1991
   66DOPC  C215 9049   1.903   5.077   3.954  1.0712  0.1744 -0.4676
   66DOPC  H15R 9050   1.987   5.140   3.919  0.6415  1.3671  0.5693
   66DOPC  H15S 9051   1.811   5.135   3.933  1.0776 -0.1731 -1.5014
   66DOPC  C216 9052   1.908   4.935   3.884 -0.4226  0.1755 -0.1644
   66DOPC  H16R 9053   1.827   4.867   3.919 -0.0701 -0.4761 -0.5970
   66DOPC  H16S 9054   2.014   4.903   3.889 -0.1367  0.9810 -0.7519
   66DOPC  C217 9055   1.886   4.949   3.734  0.7056 -0.4418  0.2985
   66DOPC  H17R 9056   1.958   5.015   3.681 -1.4622  0.2998 -1.9351
   66DOPC  H17S 9057   1.783   4.988   3.717 -0.2558 -2.4951  1.0349
   66DOPC  C218 9058   1.892   4.815   3.661  0.5825  0.1567 -0.6649
   66DOPC  H18R 9059   1.989   4.763   3.669  1.7879  2.2670 -0.8814
   66DOPC  H18S 9060   1.869   4.817   3.552 -1.7062 -3.1646 -0.4282
   66DOPC  H18T 9061   1.820   4.751   3.717  2.9703 -0.0658  2.4197
   66DOPC   C33 9062   1.127   4.736   4.576 -0.3376  0.7329  0.0884
   66DOPC   H3X 9063   1.026   4.733   4.621 -0.3541  1.7020  0.1460
   66DOPC   H3Y 9064   1.174   4.660   4.642 -0.8773 -1.1609 -1.6012
   66DOPC   C34 9065   1.095   4.664   4.437 -0.2424  0.4064 -0.0447
   66DOPC   H4X 9066   1.025   4.578   4.442  1.0894 -0.6816  0.4750
   66DOPC   H4Y 9067   1.194   4.627   4.401  0.1147  0.6399  0.6750
   66DOPC   C35 9068   1.028   4.764   4.336 -0.6332  0.3766 -0.8918
   66DOPC   H5X 9069   1.090   4.845   4.291 -2.5948  2.7274  0.4052
   66DOPC   H5Y 9070   0.944   4.811   4.391 -0.0790 -0.2932  0.5717
   66DOPC   C36 9071   0.972   4.687   4.218  0.1112 -0.5358 -0.5724
   66DOPC   H6X 9072   0.892   4.627   4.265 -0.0394  1.3336  1.7116
   66DOPC   H6Y 9073   0.921   4.759   4.150 -1.2800  0.3737  1.3339
   66DOPC   C37 9074   1.068   4.602   4.136 -0.2977 -0.1164 -0.2768
   66DOPC   H7X 9075   1.158   4.661   4.106  1.1074 -1.3696  1.2805
   66DOPC   H7Y 9076   1.112   4.521   4.198 -0.4013  1.4309  1.9520
   66DOPC   C38 9077   0.988   4.557   4.007 -0.1760 -0.1897 -0.4425
   66DOPC   H8X 9078   0.942   4.644   3.955 -2.4372 -1.1159 -0.1001
   66DOPC   H8Y 9079   0.904   4.493   4.040 -0.1447 -0.3117 -0.6023
   66DOPC   C39 9080   1.082   4.488   3.909  0.2131  0.5844 -0.5379
   66DOPC   H9X 9081   1.176   4.455   3.955  0.3065  0.9501 -0.4650
   66DOPC  C310 9082   1.072   4.490   3.780  0.1506  0.6166 -0.2160
   66DOPC  H10X 9083   1.151   4.434   3.729  0.9630  1.2592  0.3161
   66DOPC  C311 9084   0.955   4.543   3.697 -0.1250 -0.2512 -0.9920
   66DOPC  H11X 9085   0.967   4.525   3.588 -1.8764  0.2890 -1.3044
   66DOPC  H11Y 9086   0.950   4.654   3.704  0.4507 -0.2576 -0.3579
   66DOPC  C312 9087   0.816   4.491   3.722 -0.2399  0.2180 -0.2794
   66DOPC  H12X 9088   0.760   4.555   3.794 -0.4482  1.0934 -1.2073
   66DOPC  H12Y 9089   0.831   4.400   3.785 -1.1978  0.9037  0.9884
   66DOPC  C313 9090   0.740   4.474   3.592 -0.3168  0.7529 -0.1709
   66DOPC  H13X 9091   0.720   4.573   3.545 -0.2458  0.1821 -1.4387
   66DOPC  H13Y 9092   0.798   4.417   3.516 -1.4857  0.4835 -0.8953
   66DOPC  C314 9093   0.603   4.399   3.617 -0.2501  0.1296  0.0507
   66DOPC  H14X 9094   0.633   4.296   3.648 -0.0776  0.4123  0.8586
   66DOPC  H14Y 9095   0.553   4.450   3.703 -1.6577  0.9417 -1.2024
   66DOPC  C315 9096   0.516   4.394   3.496  0.1728 -0.6633  0.5088
   66DOPC  H15X 9097   0.508   4.497   3.455  0.9916 -0.8733 -0.1835
   66DOPC  H15Y 9098   0.412   4.359   3.516  0.0337 -0.8527 -0.5404
   66DOPC  C316 9099   0.576   4.297   3.386 -0.5834 -0.1110  0.1498
   66DOPC  H16X 9100   0.678   4.319   3.347 -0.1538 -2.5451 -0.2690
   66DOPC  H16Y 9101   0.581   4.202   3.444 -1.7155 -0.6703 -0.6288
   66DOPC  C317 9102   0.476   4.280   3.268 -0.1306  0.3526 -0.2766
   66DOPC  H17X 9103   0.377   4.248   3.307  0.5579 -2.4882 -0.6330
   66DOPC  H17Y 9104   0.457   4.383   3.230 -0.9795  0.7710  1.1990
   66DOPC  C318 9105   0.527   4.201   3.158  0.2542 -0.3133  0.2523
   66DOPC  H18X 9106   0.463   4.212   3.067  1.8862  0.6869 -0.8261
   66DOPC  H18Y 9107   0.631   4.226   3.127  0.0266  1.2717  0.6737
   66DOPC  H18Z 9108   0.523   4.092   3.175  1.1617 -0.7290 -1.8472
   67DOPC     N 9109   7.029   3.393   4.763 -0.3456 -0.3721 -0.4285
   67DOPC   C12 9110   6.967   3.258   4.801 -0.2194 -0.8407 -0.6180
   67DOPC  H12A 9111   7.044   3.183   4.787  1.9170  1.3391 -1.3164
   67DOPC  H12B 9112   6.892   3.240   4.725 -1.7041  0.9962  0.3325
   67DOPC   C13 9113   7.136   3.429   4.866  0.4853 -0.1048 -0.3820
   67DOPC  H13A 9114   7.093   3.437   4.965  0.2445  2.3915 -0.6063
   67DOPC  H13B 9115   7.216   3.358   4.877 -0.4238 -1.2893 -1.2571
   67DOPC  H13C 9116   7.183   3.524   4.843  1.5339 -0.1113  1.4681
   67DOPC   C14 9117   6.935   3.501   4.755 -0.0191  0.0560 -0.6115
   67DOPC  H14A 9118   6.995   3.588   4.737 -0.2375  0.1843 -0.7215
   67DOPC  H14B 9119   6.871   3.479   4.671  0.9508  1.6993 -1.8302
   67DOPC  H14C 9120   6.885   3.508   4.850  2.6306 -0.7671  0.9406
   67DOPC   C15 9121   7.112   3.373   4.640 -1.1737  0.2361 -0.6874
   67DOPC  H15A 9122   7.164   3.461   4.605 -0.2713  0.0190  0.0434
   67DOPC  H15B 9123   7.062   3.315   4.564  1.6073 -1.4210 -1.4038
   67DOPC  H15C 9124   7.182   3.297   4.673 -0.6299 -0.0460 -2.3984
   67DOPC   C11 9125   6.914   3.236   4.948 -0.9205  0.2166 -0.5411
   67DOPC  H11A 9126   6.837   3.315   4.957  0.7388  1.7979  0.7752
   67DOPC  H11B 9127   6.863   3.138   4.956  0.8381 -0.6209  1.8077
   67DOPC     P 9128   7.124   3.117   5.056  0.3517 -0.1349 -0.3576
   67DOPC   O13 9129   7.054   3.003   5.128 -0.4606 -0.2393 -0.7857
   67DOPC   O14 9130   7.243   3.170   5.123  0.3725  0.2484  0.2073
   67DOPC   O12 9131   7.026   3.245   5.036  0.1027 -0.0106  0.7524
   67DOPC   O11 9132   7.169   3.073   4.910  0.6334  0.4658 -0.7845
   67DOPC    C1 9133   7.292   3.005   4.898 -0.1691 -0.5387 -0.0004
   67DOPC    HA 9134   7.283   2.901   4.936 -1.1404 -0.3686  0.2818
   67DOPC    HB 9135   7.370   3.047   4.965  1.6000 -2.3191 -0.8294
   67DOPC    C2 9136   7.329   2.995   4.754  0.4508  0.3771  1.2060
   67DOPC    HS 9137   7.424   2.938   4.744  0.1203  0.1963 -1.6197
   67DOPC   O21 9138   7.355   3.125   4.695 -0.4757  0.2880 -0.4054
   67DOPC   C21 9139   7.464   3.182   4.747 -0.0218  0.4685 -0.2517
   67DOPC   O22 9140   7.547   3.135   4.824  0.3796  0.4504  0.0816
   67DOPC   C22 9141   7.482   3.317   4.686  0.3659 -0.1093 -0.2553
   67DOPC   H2R 9142   7.456   3.394   4.762  2.2144 -0.7781  1.1556
   67DOPC   H2S 9143   7.409   3.326   4.603  0.1794  2.5448  0.1143
   67DOPC    C3 9144   7.213   2.923   4.677  0.1088 -0.3777  0.7019
   67DOPC    HX 9145   7.118   2.980   4.673  0.1632 -0.3582 -0.5710
   67DOPC    HY 9146   7.197   2.833   4.741  3.6135 -0.5025  1.5961
   67DOPC   O31 9147   7.245   2.876   4.539 -0.4315 -0.1353  0.3489
   67DOPC   C31 9148   7.235   2.958   4.436 -0.5176 -0.6282 -0.0599
   67DOPC   O32 9149   7.176   3.065   4.440 -0.5601 -0.7427  0.1220
   67DOPC   C32 9150   7.313   2.903   4.311 -0.5401 -0.5824  0.4828
   67DOPC   H2X 9151   7.307   2.985   4.238 -2.4153 -0.4348  0.7691
   67DOPC   H2Y 9152   7.420   2.898   4.343 -0.5070  0.5210  0.5528
   67DOPC   C23 9153   7.627   3.352   4.639  0.3973 -0.6130  1.2604
   67DOPC   H3R 9154   7.694   3.315   4.719 -0.9769 -1.9772  1.8421
   67DOPC   H3S 9155   7.646   3.462   4.639  0.2117 -0.5638 -0.2440
   67DOPC   C24 9156   7.671   3.279   4.513 -0.9150  0.0560  0.5231
   67DOPC   H4R 9157   7.655   3.170   4.530 -0.4642 -0.8458 -3.5645
   67DOPC   H4S 9158   7.780   3.295   4.501 -0.6578  0.3022  2.8260
   67DOPC   C25 9159   7.604   3.316   4.372  0.4077  0.1000  0.0611
   67DOPC   H5R 9160   7.494   3.315   4.384  0.3311  3.0765  0.3892
   67DOPC   H5S 9161   7.644   3.237   4.305  1.3351  1.5065 -1.1300
   67DOPC   C26 9162   7.647   3.447   4.307 -0.4780 -0.1391  0.6701
   67DOPC   H6R 9163   7.756   3.465   4.315 -0.4865  1.2404 -1.4765
   67DOPC   H6S 9164   7.595   3.535   4.351  1.1319  1.6734 -0.8579
   67DOPC   C27 9165   7.611   3.448   4.153 -0.7162  0.1805  0.2539
   67DOPC   H7R 9166   7.658   3.356   4.112 -1.2845  0.1801 -0.4217
   67DOPC   H7S 9167   7.652   3.536   4.100  2.3696  0.0667  2.1905
   67DOPC   C28 9168   7.468   3.438   4.107 -0.2112 -0.0007 -0.3463
   67DOPC   H8R 9169   7.433   3.341   4.147  2.8936 -0.8501  0.5843
   67DOPC   H8S 9170   7.459   3.443   3.997 -1.0269  1.9676 -0.2377
   67DOPC   C29 9171   7.378   3.551   4.173 -0.5977  0.4704  0.0328
   67DOPC   H9R 9172   7.416   3.653   4.152  2.1819 -0.6083 -0.7078
   67DOPC  C210 9173   7.262   3.530   4.236  0.0850  0.4127  0.7398
   67DOPC  H10R 9174   7.208   3.617   4.278  1.5647  1.1719  1.1407
   67DOPC  C211 9175   7.194   3.401   4.263 -0.5236 -0.7239  0.0689
   67DOPC  H11R 9176   7.226   3.359   4.361 -0.4587 -0.6417  0.0821
   67DOPC  H11S 9177   7.219   3.330   4.181 -1.0421 -0.0030 -0.7333
   67DOPC  C212 9178   7.044   3.419   4.270  0.0920 -0.3005  0.0464
   67DOPC  H12R 9179   6.997   3.479   4.190 -0.5659  0.6582  1.1240
   67DOPC  H12S 9180   7.017   3.469   4.365  1.7580 -0.5722  0.6901
   67DOPC  C213 9181   6.963   3.288   4.280 -0.1870 -0.3005  0.3027
   67DOPC  H13R 9182   6.857   3.322   4.278  0.0591  0.4673 -0.9674
   67DOPC  H13S 9183   6.988   3.239   4.376 -0.2742 -1.4750 -0.2585
   67DOPC  C214 9184   6.980   3.190   4.168  0.5640  0.2609 -0.0263
   67DOPC  H14R 9185   7.081   3.145   4.160  0.2448 -0.1919 -2.3219
   67DOPC  H14S 9186   6.948   3.241   4.074  2.6234  0.9687 -0.3791
   67DOPC  C215 9187   6.880   3.068   4.184  0.5553  0.3838 -0.7297
   67DOPC  H15R 9188   6.895   3.021   4.284  2.3254 -0.6538 -1.4336
   67DOPC  H15S 9189   6.907   2.991   4.109  0.9069  0.9650 -1.2078
   67DOPC  C216 9190   6.736   3.109   4.162  0.2306 -0.3590 -0.0771
   67DOPC  H16R 9191   6.711   3.173   4.075 -0.2721 -0.7853 -0.2538
   67DOPC  H16S 9192   6.716   3.176   4.248  0.5888 -1.3047  0.7766
   67DOPC  C217 9193   6.635   2.993   4.164  0.1762  0.8076  0.0770
   67DOPC  H17R 9194   6.659   2.925   4.249 -2.0388  0.1945  0.2719
   67DOPC  H17S 9195   6.662   2.930   4.076 -0.1200 -1.3068  1.4258
   67DOPC  C218 9196   6.484   3.034   4.173 -0.6051 -0.1967 -0.5286
   67DOPC  H18R 9197   6.465   3.092   4.266 -0.2871  0.8173 -1.0770
   67DOPC  H18S 9198   6.417   2.946   4.168 -1.1291 -0.0882  2.4205
   67DOPC  H18T 9199   6.457   3.109   4.096  1.6628 -0.5411 -1.7584
   67DOPC   C33 9200   7.266   2.769   4.255  0.5900  0.5229  0.0736
   67DOPC   H3X 9201   7.238   2.701   4.338 -1.5830 -0.1820 -1.1669
   67DOPC   H3Y 9202   7.340   2.718   4.189 -0.3370  0.0416 -0.6055
   67DOPC   C34 9203   7.146   2.783   4.165 -0.6401 -0.3466 -0.6634
   67DOPC   H4X 9204   7.173   2.852   4.083 -3.4066  0.9776 -0.5851
   67DOPC   H4Y 9205   7.064   2.834   4.220 -1.0029  0.0989 -1.5975
   67DOPC   C35 9206   7.096   2.654   4.101  0.3100 -0.0285 -0.1762
   67DOPC   H5X 9207   7.072   2.579   4.180  0.4255 -0.9014 -0.9563
   67DOPC   H5Y 9208   7.183   2.615   4.044  1.0508  2.7094 -1.0945
   67DOPC   C36 9209   6.970   2.672   4.013 -0.0198  0.2310  0.2562
   67DOPC   H6X 9210   6.936   2.577   3.967 -0.7440 -0.7696  2.7257
   67DOPC   H6Y 9211   6.887   2.705   4.078  0.2622  2.2430 -0.3203
   67DOPC   C37 9212   6.986   2.758   3.892  0.3122 -0.2240  0.3802
   67DOPC   H7X 9213   7.036   2.849   3.932  0.1761  0.0696 -0.1071
   67DOPC   H7Y 9214   7.051   2.708   3.816 -1.6822  0.8440 -2.2038
   67DOPC   C38 9215   6.845   2.799   3.831 -0.3709 -0.2493 -0.2075
   67DOPC   H8X 9216   6.870   2.882   3.761  2.3313  0.6799  1.7039
   67DOPC   H8Y 9217   6.777   2.850   3.902  0.1773 -0.3956  0.4272
   67DOPC   C39 9218   6.785   2.687   3.747  0.2286 -0.5477  0.0974
   67DOPC   H9X 9219   6.727   2.612   3.803  1.5852 -1.2667  0.5926
   67DOPC  C310 9220   6.825   2.652   3.623  0.2538 -0.7095 -0.5558
   67DOPC  H10X 9221   6.771   2.588   3.552 -1.1971  0.3284 -0.4155
   67DOPC  C311 9222   6.929   2.729   3.553 -0.1366 -0.0583 -0.0366
   67DOPC  H11X 9223   6.999   2.782   3.621 -0.3451 -0.5383  0.5677
   67DOPC  H11Y 9224   6.872   2.801   3.491 -1.6342  1.4276  2.8514
   67DOPC  C312 9225   7.020   2.658   3.457 -0.0668 -0.1629 -0.1047
   67DOPC  H12X 9226   6.959   2.600   3.384 -0.3637  1.1672 -0.9570
   67DOPC  H12Y 9227   7.093   2.591   3.506  1.4372  1.0594 -0.6110
   67DOPC  C313 9228   7.099   2.761   3.372  0.1927  0.1177  0.1113
   67DOPC  H13X 9229   7.017   2.813   3.319  1.9600  0.3581 -2.6364
   67DOPC  H13Y 9230   7.156   2.810   3.454  0.5096 -1.2363  0.7337
   67DOPC  C314 9231   7.195   2.711   3.271 -0.0652  0.7813  0.1283
   67DOPC  H14X 9232   7.233   2.800   3.216  1.6320 -0.3231 -0.5677
   67DOPC  H14Y 9233   7.279   2.653   3.316 -0.6728  0.0972  0.4131
   67DOPC  C315 9234   7.129   2.627   3.157  0.2163  0.0006 -0.3494
   67DOPC  H15X 9235   7.067   2.698   3.098 -0.2757  0.2648  0.4678
   67DOPC  H15Y 9236   7.062   2.543   3.186 -0.1584  0.4432  0.0827
   67DOPC  C316 9237   7.228   2.569   3.053 -0.2409  0.0278  0.6461
   67DOPC  H16X 9238   7.300   2.646   3.017  0.8623 -1.1686  0.2042
   67DOPC  H16Y 9239   7.290   2.485   3.091  1.4268  0.6936 -0.4690
   67DOPC  C317 9240   7.150   2.513   2.933 -0.4681 -0.6503  0.3186
   67DOPC  H17X 9241   7.080   2.438   2.975 -1.3653 -0.0783 -0.1356
   67DOPC  H17Y 9242   7.086   2.592   2.888 -0.5319 -1.9340 -2.0285
   67DOPC  C318 9243   7.247   2.447   2.830 -0.3098  0.1117 -0.8216
   67DOPC  H18X 9244   7.315   2.379   2.888 -0.8993 -0.7702 -1.1518
   67DOPC  H18Y 9245   7.183   2.384   2.765 -0.2203 -2.2072  1.1834
   67DOPC  H18Z 9246   7.299   2.521   2.766  0.2462  0.0600 -0.4415
   68DOPC     N 9247   5.589   7.897   5.153 -0.1079  0.0278 -0.2882
   68DOPC   C12 9248   5.570   8.001   5.048  0.3775 -0.0055 -0.2128
   68DOPC  H12A 9249   5.669   8.028   5.013  1.4184 -0.7195  1.9356
   68DOPC  H12B 9250   5.530   8.090   5.094  0.6925 -0.8145  1.7344
   68DOPC   C13 9251   5.459   7.849   5.206  0.0636  0.2212 -0.4171
   68DOPC  H13A 9252   5.395   7.805   5.131 -0.0469 -0.6268  0.1658
   68DOPC  H13B 9253   5.487   7.788   5.290  2.9323  1.0705 -0.6326
   68DOPC  H13C 9254   5.401   7.928   5.251 -0.4959 -0.5287  0.2160
   68DOPC   C14 9255   5.657   7.959   5.270  0.2201  0.3770 -0.0535
   68DOPC  H14A 9256   5.744   8.017   5.247  2.5858 -3.6353 -2.3708
   68DOPC  H14B 9257   5.595   8.036   5.314 -1.2881 -1.1200  0.5606
   68DOPC  H14C 9258   5.669   7.878   5.341  2.3789 -1.7095 -2.5548
   68DOPC   C15 9259   5.659   7.774   5.101 -0.3188  0.2835  0.0377
   68DOPC  H15A 9260   5.665   7.693   5.173  0.7485 -0.2539 -0.6205
   68DOPC  H15B 9261   5.759   7.794   5.065 -0.0923  0.0483  0.5175
   68DOPC  H15C 9262   5.603   7.739   5.015 -1.1758  0.0703  0.6750
   68DOPC   C11 9263   5.509   7.971   4.917 -1.1433 -0.0899  0.0893
   68DOPC  H11A 9264   5.527   8.061   4.855  1.2327 -2.2858 -2.7382
   68DOPC  H11B 9265   5.554   7.881   4.869 -2.8799 -0.8910 -0.1325
   68DOPC     P 9266   5.276   8.055   4.982 -0.0608 -0.3557  0.1823
   68DOPC   O13 9267   5.339   8.172   5.048  0.1118 -0.5536 -0.3521
   68DOPC   O14 9268   5.171   7.984   5.062 -0.0465 -0.3411  0.1921
   68DOPC   O12 9269   5.374   7.947   4.928 -0.1937  0.0499  0.2878
   68DOPC   O11 9270   5.201   8.102   4.848 -0.1573 -0.2708  0.1931
   68DOPC    C1 9271   5.249   8.067   4.716 -0.2572 -0.2624  0.7658
   68DOPC    HA 9272   5.273   7.959   4.704 -1.1079 -0.5220  1.3188
   68DOPC    HB 9273   5.344   8.118   4.693  0.9207 -2.4348  0.5648
   68DOPC    C2 9274   5.140   8.098   4.609 -0.5271 -0.6216  0.9086
   68DOPC    HS 9275   5.114   8.205   4.625 -0.1466 -0.6093  1.5094
   68DOPC   O21 9276   5.020   8.023   4.627 -0.7790  0.1494 -0.1170
   68DOPC   C21 9277   4.916   8.073   4.562  0.5523 -0.6523  0.8084
   68DOPC   O22 9278   4.913   8.176   4.495 -0.0924  0.3370  0.7328
   68DOPC   C22 9279   4.796   7.981   4.597 -0.9333 -0.7080  0.3666
   68DOPC   H2R 9280   4.758   8.039   4.685  3.0748  1.2793  1.0497
   68DOPC   H2S 9281   4.826   7.879   4.628  0.7793 -0.8364 -1.5445
   68DOPC    C3 9282   5.203   8.077   4.466 -0.7430 -0.2487  0.1130
   68DOPC    HX 9283   5.133   8.112   4.387 -0.0527  1.2402  0.1314
   68DOPC    HY 9284   5.225   7.969   4.456 -0.2838 -0.0434 -1.2537
   68DOPC   O31 9285   5.328   8.148   4.445 -0.6160 -0.9279  0.3975
   68DOPC   C31 9286   5.326   8.276   4.413  0.3784 -0.3349 -0.0138
   68DOPC   O32 9287   5.228   8.345   4.426 -0.0908 -0.1443  0.3358
   68DOPC   C32 9288   5.461   8.327   4.361 -0.1355  0.1080 -0.4241
   68DOPC   H2X 9289   5.471   8.436   4.381  0.8982 -0.0328 -0.1260
   68DOPC   H2Y 9290   5.541   8.267   4.409 -0.7626  0.2834  0.8813
   68DOPC   C23 9291   4.687   7.980   4.492  0.0298  0.5835  0.5684
   68DOPC   H3R 9292   4.710   7.911   4.408  0.6358 -0.3222  1.4616
   68DOPC   H3S 9293   4.674   8.082   4.449 -0.7901  0.8129  1.3443
   68DOPC   C24 9294   4.553   7.936   4.555  0.4741  0.4764 -0.5306
   68DOPC   H4R 9295   4.509   8.018   4.615  0.8831  0.0488  0.3697
   68DOPC   H4S 9296   4.587   7.853   4.621  0.0177  0.7226  0.0153
   68DOPC   C25 9297   4.441   7.890   4.453  0.2630  0.5497 -0.5415
   68DOPC   H5R 9298   4.366   7.852   4.526  0.1748 -0.5565 -1.1998
   68DOPC   H5S 9299   4.475   7.811   4.383 -1.0527 -0.9470  0.4471
   68DOPC   C26 9300   4.387   8.011   4.377  0.2223 -0.2993  0.2566
   68DOPC   H6R 9301   4.468   8.052   4.312 -0.0070  0.8388  0.6662
   68DOPC   H6S 9302   4.366   8.089   4.454 -1.6004 -0.4159 -0.0823
   68DOPC   C27 9303   4.266   7.970   4.287  0.0875 -0.7574  0.0663
   68DOPC   H7R 9304   4.220   8.065   4.253  0.3119 -0.8884 -0.6148
   68DOPC   H7S 9305   4.193   7.913   4.348  0.0472 -0.1258  0.6258
   68DOPC   C28 9306   4.319   7.906   4.156 -0.5128  0.0237  1.1733
   68DOPC   H8R 9307   4.375   7.818   4.192 -0.4613 -0.4422 -0.0099
   68DOPC   H8S 9308   4.385   7.981   4.107  0.2306 -1.5137 -0.2534
   68DOPC   C29 9309   4.200   7.865   4.071 -0.4453 -0.0821  0.3789
   68DOPC   H9R 9310   4.167   7.761   4.088  1.0592 -0.2710  2.5808
   68DOPC  C210 9311   4.131   7.936   3.981 -0.1789  0.1751 -0.2768
   68DOPC  H10R 9312   4.047   7.893   3.926  0.2387  2.5385 -3.0605
   68DOPC  C211 9313   4.155   8.082   3.936 -0.1815 -0.1243  0.1960
   68DOPC  H11R 9314   4.222   8.136   4.007  1.1442  0.1015 -1.1679
   68DOPC  H11S 9315   4.059   8.137   3.946 -0.2074 -0.0585 -0.3994
   68DOPC  C212 9316   4.219   8.093   3.802 -0.1032  0.0538  0.5823
   68DOPC  H12R 9317   4.299   8.018   3.789  1.3815  1.7999 -1.0195
   68DOPC  H12S 9318   4.260   8.197   3.799  1.7369 -0.6726 -1.3999
   68DOPC  C213 9319   4.116   8.079   3.688 -0.1573  0.1479 -0.8947
   68DOPC  H13R 9320   4.046   8.162   3.714  1.1133  1.0643 -0.3156
   68DOPC  H13S 9321   4.062   7.982   3.696 -2.7347  1.5821  0.8690
   68DOPC  C214 9322   4.177   8.116   3.555 -0.2964  0.1342  0.5120
   68DOPC  H14R 9323   4.258   8.044   3.529 -0.1304 -0.0185  1.4018
   68DOPC  H14S 9324   4.222   8.217   3.549  0.5404 -0.3084 -1.6655
   68DOPC  C215 9325   4.079   8.115   3.434  0.0218 -0.7149  0.2356
   68DOPC  H15R 9326   3.984   8.161   3.470  0.3835 -0.4598  0.8770
   68DOPC  H15S 9327   4.065   8.014   3.390  2.1753 -0.6354 -0.7726
   68DOPC  C216 9328   4.120   8.202   3.316  0.1240  0.3941  0.5953
   68DOPC  H16R 9329   4.113   8.309   3.345 -1.6613 -0.0940  2.1689
   68DOPC  H16S 9330   4.050   8.183   3.231 -0.6193  1.0157  1.0562
   68DOPC  C217 9331   4.261   8.168   3.265  0.3630 -0.7592  0.0251
   68DOPC  H17R 9332   4.254   8.065   3.225  1.6834 -0.8662  0.0262
   68DOPC  H17S 9333   4.341   8.172   3.342  0.9137 -1.5233 -0.4877
   68DOPC  C218 9334   4.304   8.253   3.149 -0.7080 -0.4381 -0.5132
   68DOPC  H18R 9335   4.272   8.356   3.174  0.4193 -0.5288  1.4825
   68DOPC  H18S 9336   4.249   8.228   3.056 -0.8845 -0.1203 -0.4951
   68DOPC  H18T 9337   4.413   8.248   3.127 -0.5606 -1.4310  0.3908
   68DOPC   C33 9338   5.462   8.323   4.211  0.1923  0.0834  0.2263
   68DOPC   H3X 9339   5.436   8.223   4.169  1.4671 -1.2306  2.4158
   68DOPC   H3Y 9340   5.559   8.361   4.173  0.9558 -0.7566  1.3068
   68DOPC   C34 9341   5.372   8.431   4.150  0.0959 -0.2830  1.0321
   68DOPC   H4X 9342   5.397   0.001   4.174 -0.4239  0.0470  0.1730
   68DOPC   H4Y 9343   5.266   8.425   4.182 -0.5624  0.1524 -0.9305
   68DOPC   C35 9344   5.367   8.409   3.991  0.1024 -0.1796 -0.0842
   68DOPC   H5X 9345   5.322   8.310   3.969  0.9596 -0.4352 -0.7529
   68DOPC   H5Y 9346   5.468   8.412   3.943  0.1429  2.7080 -0.0185
   68DOPC   C36 9347   5.282   8.514   3.933 -0.0149 -0.6151  0.2282
   68DOPC   H6X 9348   5.186   8.501   3.988 -0.7771 -1.1645 -1.1596
   68DOPC   H6Y 9349   5.310   0.084   3.955  1.4348 -1.1219  0.9186
   68DOPC   C37 9350   5.250   8.514   3.780 -0.1188  0.2792 -0.4407
   68DOPC   H7X 9351   5.331   0.041   3.734 -0.5300 -0.1005 -1.6995
   68DOPC   H7Y 9352   5.264   8.410   3.743  0.8435  0.8097 -1.6650
   68DOPC   C38 9353   5.100   0.006   3.744  0.0855  0.1525  0.6293
   68DOPC   H8X 9354   5.081   0.112   3.769 -0.8422  1.0425 -3.1872
   68DOPC   H8Y 9355   5.037   8.476   3.809  1.6429 -1.7368  0.3593
   68DOPC   C39 9356   5.063   8.527   3.605 -0.5293  0.4119 -0.5992
   68DOPC   H9X 9357   5.138   0.001   3.526 -0.4732 -3.0327 -1.1291
   68DOPC  C310 9358   4.945   8.494   3.558 -0.3748  0.0443  0.5664
   68DOPC  H10X 9359   4.932   8.481   3.450 -0.4311  1.0448  0.4410
   68DOPC  C311 9360   4.816   8.475   3.631  0.6605  0.4106  0.8363
   68DOPC  H11X 9361   4.744   0.023   3.624  1.9296  1.5183  0.4832
   68DOPC  H11Y 9362   4.822   8.470   3.742 -0.5346  2.5249  1.0503
   68DOPC  C312 9363   4.743   8.346   3.585 -0.3299 -0.0426 -0.3642
   68DOPC  H12X 9364   4.744   8.345   3.474  0.8736 -0.5573 -0.3721
   68DOPC  H12Y 9365   4.634   8.351   3.601  0.0395  1.3535  2.2986
   68DOPC  C313 9366   4.796   8.217   3.655 -0.3472  0.0103  0.3262
   68DOPC  H13X 9367   4.904   8.203   3.630 -0.0930  0.4475  1.1604
   68DOPC  H13Y 9368   4.784   8.211   3.765 -1.2215  0.5322  0.2690
   68DOPC  C314 9369   4.732   8.097   3.580 -0.2299  0.3218 -0.9620
   68DOPC  H14X 9370   4.623   8.082   3.586 -0.3225  1.0061 -0.7608
   68DOPC  H14Y 9371   4.739   8.106   3.470 -0.7031 -0.9841 -1.1103
   68DOPC  C315 9372   4.790   7.965   3.629 -0.7227  0.0039  0.4149
   68DOPC  H15X 9373   4.771   7.961   3.738 -0.0318  2.1950  0.6821
   68DOPC  H15Y 9374   4.898   7.959   3.606 -0.6779 -2.2443  0.9996
   68DOPC  C316 9375   4.720   7.842   3.568 -0.7226  0.6543 -0.5380
   68DOPC  H16X 9376   4.611   7.856   3.578 -0.9254 -0.3536 -1.1879
   68DOPC  H16Y 9377   4.737   7.845   3.458 -0.6464 -0.4301 -0.5661
   68DOPC  C317 9378   4.769   7.697   3.617  0.4696 -0.1470 -0.0628
   68DOPC  H17X 9379   4.731   7.687   3.721 -1.3272  2.8435 -0.2919
   68DOPC  H17Y 9380   4.725   7.621   3.550 -0.6654 -0.2356  0.7417
   68DOPC  C318 9381   4.924   7.677   3.628  0.0763 -0.1847 -0.7034
   68DOPC  H18X 9382   4.933   7.580   3.682  2.4987 -0.8914 -2.2277
   68DOPC  H18Y 9383   4.966   7.676   3.526  1.0019  3.2755 -0.4731
   68DOPC  H18Z 9384   4.974   7.756   3.689  0.1480  0.2756 -1.3557
   69DOPC     N 9385   6.177   3.789   5.273 -0.3954  0.5023 -0.4523
   69DOPC   C12 9386   6.211   3.906   5.188  0.8072 -0.5700  0.7444
   69DOPC  H12A 9387   6.235   3.872   5.089  3.3038  3.3022 -0.1857
   69DOPC  H12B 9388   6.300   3.958   5.217  0.1539  1.2099 -0.2990
   69DOPC   C13 9389   6.035   3.750   5.267 -0.0173 -0.4124 -0.6815
   69DOPC  H13A 9390   5.979   3.835   5.304  3.7886  2.3124 -0.6113
   69DOPC  H13B 9391   6.002   3.745   5.165  0.6868  0.1955 -0.9482
   69DOPC  H13C 9392   6.017   3.656   5.317  1.5782 -0.1834  0.3882
   69DOPC   C14 9393   6.199   3.818   5.421  0.6135  0.2570 -0.3433
   69DOPC  H14A 9394   6.297   3.863   5.434  0.4124  1.3924 -2.3684
   69DOPC  H14B 9395   6.123   3.888   5.452 -0.3658 -1.0081  0.2183
   69DOPC  H14C 9396   6.205   3.728   5.481  1.0215 -0.0996 -0.9148
   69DOPC   C15 9397   6.269   3.675   5.242  0.3592  0.5557 -1.0516
   69DOPC  H15A 9398   6.237   3.627   5.151 -0.5774  1.3870 -1.1888
   69DOPC  H15B 9399   6.254   3.611   5.327 -0.6438  1.9529 -0.1222
   69DOPC  H15C 9400   6.374   3.700   5.240  0.5041 -0.0521 -1.3761
   69DOPC   C11 9401   6.089   4.011   5.179 -0.2278  0.0675 -0.1442
   69DOPC  H11A 9402   6.126   4.078   5.098 -0.6617  0.7843  0.2400
   69DOPC  H11B 9403   5.989   3.970   5.155 -0.8829 -0.1433  2.5832
   69DOPC     P 9404   6.195   4.191   5.339  0.3187 -0.0281 -0.1869
   69DOPC   O13 9405   6.329   4.132   5.336  0.0686  0.3578 -0.6946
   69DOPC   O14 9406   6.161   4.258   5.466 -0.3111 -0.3866  0.2787
   69DOPC   O12 9407   6.082   4.079   5.307 -0.1548 -0.7333  0.3910
   69DOPC   O11 9408   6.173   4.302   5.228 -0.8555 -0.2421  0.2998
   69DOPC    C1 9409   6.273   4.383   5.185  0.1991  0.4316  0.4761
   69DOPC    HA 9410   6.359   4.403   5.252 -0.4171 -0.4781  1.5593
   69DOPC    HB 9411   6.236   4.485   5.161  1.8952  0.3130 -3.4297
   69DOPC    C2 9412   6.333   4.341   5.049 -0.1719 -0.0821  0.5036
   69DOPC    HS 9413   6.388   4.421   4.996 -0.1916  0.0635  0.7014
   69DOPC   O21 9414   6.228   4.289   4.963  0.1112 -0.6509  0.0125
   69DOPC   C21 9415   6.128   4.367   4.931  0.7555 -0.0333  0.0684
   69DOPC   O22 9416   6.123   4.490   4.948  0.1388 -0.5552  0.2342
   69DOPC   C22 9417   6.004   4.287   4.881 -0.9689  0.4977  1.1828
   69DOPC   H2R 9418   5.916   4.353   4.900 -1.6732 -0.7997  2.6599
   69DOPC   H2S 9419   5.995   4.192   4.938 -1.7055  0.1843  0.5623
   69DOPC    C3 9420   6.443   4.225   5.054  0.1635  0.3538 -0.1435
   69DOPC    HX 9421   6.394   4.142   5.109  0.9189  0.0963  0.1539
   69DOPC    HY 9422   6.527   4.250   5.121 -0.8713  1.9210  0.6404
   69DOPC   O31 9423   6.489   4.175   4.923  0.1172 -0.5963 -0.0708
   69DOPC   C31 9424   6.504   4.043   4.897 -0.2649 -1.0608  0.4827
   69DOPC   O32 9425   6.476   3.951   4.971 -0.0148 -0.1442 -0.1259
   69DOPC   C32 9426   6.555   4.016   4.758 -0.0036  0.0578 -0.2678
   69DOPC   H2X 9427   6.652   3.961   4.762  1.6052  2.6767 -1.0132
   69DOPC   H2Y 9428   6.487   3.940   4.713  0.5580 -0.9343  0.5301
   69DOPC   C23 9429   6.020   4.253   4.724  0.0031  0.5506 -0.2860
   69DOPC   H3R 9430   6.122   4.214   4.707  0.2379  0.8350  0.4322
   69DOPC   H3S 9431   6.008   4.350   4.670 -1.8538  0.0709 -0.8249
   69DOPC   C24 9432   5.903   4.155   4.685 -0.6260  0.2605 -0.1584
   69DOPC   H4R 9433   5.809   4.214   4.678 -2.5916 -2.1823  2.8858
   69DOPC   H4S 9434   5.884   4.095   4.776 -1.9034  0.1536 -0.4865
   69DOPC   C25 9435   5.935   4.076   4.558  0.4511  0.5482 -1.0689
   69DOPC   H5R 9436   6.029   4.118   4.518  0.3766  0.8117 -0.9725
   69DOPC   H5S 9437   5.860   4.089   4.477 -0.4040 -1.3121 -0.6317
   69DOPC   C26 9438   5.941   3.928   4.598 -0.3480  0.0980 -0.5231
   69DOPC   H6R 9439   5.856   3.906   4.665  0.2323  2.1350  1.0022
   69DOPC   H6S 9440   6.024   3.912   4.670 -1.1847 -0.9487  0.2320
   69DOPC   C27 9441   5.936   3.829   4.480 -0.7788 -0.0720 -0.2984
   69DOPC   H7R 9442   6.019   3.855   4.411 -0.4404  1.5208  0.6492
   69DOPC   H7S 9443   5.843   3.849   4.422 -1.0973 -1.2604 -0.2161
   69DOPC   C28 9444   5.945   3.683   4.533  0.9755 -0.3864 -0.2333
   69DOPC   H8R 9445   5.906   3.615   4.454 -0.3421 -0.6321  0.6117
   69DOPC   H8S 9446   5.893   3.665   4.629  2.2915  0.5501  0.6861
   69DOPC   C29 9447   6.090   3.645   4.563 -0.0570  1.0075  0.0238
   69DOPC   H9R 9448   6.170   3.691   4.503  0.4585  0.9581  0.6608
   69DOPC  C210 9449   6.121   3.549   4.650  0.6525  0.5460  0.9793
   69DOPC  H10R 9450   6.226   3.518   4.664  0.8889  0.3802 -0.8990
   69DOPC  C211 9451   6.029   3.474   4.741 -0.3686 -0.2234  0.2041
   69DOPC  H11R 9452   5.940   3.535   4.768  0.2920 -0.4715  3.3854
   69DOPC  H11S 9453   6.083   3.450   4.835 -0.9304  3.5169  1.6834
   69DOPC  C212 9454   5.987   3.352   4.656  0.9348  0.0003 -0.1982
   69DOPC  H12R 9455   5.934   3.388   4.565  1.2375  2.9147  0.6856
   69DOPC  H12S 9456   5.903   3.300   4.707  0.2310  0.8805 -0.4284
   69DOPC  C213 9457   6.087   3.243   4.653 -0.9623 -0.6074  0.0514
   69DOPC  H13R 9458   6.140   3.220   4.748 -0.9631  3.2131  1.1289
   69DOPC  H13S 9459   6.172   3.287   4.596  0.4088 -1.0994  1.6268
   69DOPC  C214 9460   6.053   3.112   4.578 -0.0183  1.1399 -0.1729
   69DOPC  H14R 9461   5.957   3.073   4.616  0.1829 -0.4128 -1.1662
   69DOPC  H14S 9462   6.128   3.041   4.619 -0.5525  1.0832  0.7305
   69DOPC  C215 9463   6.078   3.123   4.425 -0.3173  0.6812 -0.1151
   69DOPC  H15R 9464   6.184   3.151   4.413  0.2455 -1.1736  0.1936
   69DOPC  H15S 9465   6.015   3.206   4.386  2.9195  3.6231  0.4356
   69DOPC  C216 9466   6.072   2.981   4.356 -0.1974  0.4431  0.2281
   69DOPC  H16R 9467   5.983   2.930   4.399  0.7704 -0.5167  1.1812
   69DOPC  H16S 9468   6.159   2.925   4.398 -0.9933 -0.1670  1.1066
   69DOPC  C217 9469   6.076   2.969   4.204 -0.2200  0.0614  0.2588
   69DOPC  H17R 9470   6.180   2.949   4.168  0.5568  1.2698  1.7149
   69DOPC  H17S 9471   6.061   3.069   4.158 -0.4010  1.2606  2.7808
   69DOPC  C218 9472   5.967   2.880   4.146  0.2867  0.1591 -0.2070
   69DOPC  H18R 9473   5.985   2.779   4.190 -1.4366  0.7181  1.9326
   69DOPC  H18S 9474   5.948   2.881   4.037  0.4933  0.8186 -0.2425
   69DOPC  H18T 9475   5.875   2.918   4.196 -1.2496 -2.0378 -1.2185
   69DOPC   C33 9476   6.547   4.134   4.662 -0.2793  0.4751  0.0403
   69DOPC   H3X 9477   6.608   4.100   4.575  0.7705 -0.3780  1.0691
   69DOPC   H3Y 9478   6.587   4.228   4.704 -0.0151 -0.2407  1.4462
   69DOPC   C34 9479   6.410   4.156   4.607  1.1426 -0.0633 -0.5019
   69DOPC   H4X 9480   6.343   4.189   4.689  0.8195  2.8767 -1.8495
   69DOPC   H4Y 9481   6.363   4.063   4.566 -1.8315  0.3791  1.5595
   69DOPC   C35 9482   6.391   4.277   4.514  0.0630 -0.5405 -0.4304
   69DOPC   H5X 9483   6.420   4.363   4.579 -1.0791 -0.2856 -0.2454
   69DOPC   H5Y 9484   6.282   4.289   4.501 -0.6574 -4.8340  0.1541
   69DOPC   C36 9485   6.462   4.256   4.381  0.7054  0.1107  0.7146
   69DOPC   H6X 9486   6.461   4.356   4.333  1.0271  0.6739  1.8462
   69DOPC   H6Y 9487   6.568   4.228   4.397 -0.1771 -2.8277  2.2333
   69DOPC   C37 9488   6.388   4.178   4.268  0.1835  0.1674 -0.0843
   69DOPC   H7X 9489   6.358   4.077   4.302 -0.7785  0.1791 -0.8468
   69DOPC   H7Y 9490   6.291   4.229   4.248  1.6246  2.6806 -1.2403
   69DOPC   C38 9491   6.473   4.172   4.142  0.2884 -0.3536 -0.7755
   69DOPC   H8X 9492   6.572   4.136   4.174  0.3010  1.9990  2.3512
   69DOPC   H8Y 9493   6.502   4.274   4.109  1.9587 -0.7679 -0.6731
   69DOPC   C39 9494   6.403   4.086   4.036  0.2542  0.3674  0.1674
   69DOPC   H9X 9495   6.316   4.137   3.992  0.1341 -0.9504 -1.1999
   69DOPC  C310 9496   6.434   3.968   3.990  0.4378  0.2645  0.5800
   69DOPC  H10X 9497   6.370   3.911   3.921 -0.1455  0.8140  0.6654
   69DOPC  C311 9498   6.549   3.882   4.044  0.3572  0.2479  0.4004
   69DOPC  H11X 9499   6.553   3.895   4.154 -1.7257 -1.1756  0.6956
   69DOPC  H11Y 9500   6.644   3.923   4.003  0.5802 -1.5980 -1.0815
   69DOPC  C312 9501   6.546   3.733   4.008  0.4583 -0.6380 -0.9046
   69DOPC  H12X 9502   6.549   3.725   3.897 -1.5345 -0.7471 -0.9966
   69DOPC  H12Y 9503   6.448   3.688   4.034 -1.7453  3.5311 -1.1746
   69DOPC  C313 9504   6.660   3.653   4.075  0.4047 -0.2053 -0.2276
   69DOPC  H13X 9505   6.761   3.696   4.064  0.7131 -0.2684  2.0235
   69DOPC  H13Y 9506   6.650   3.650   4.185 -1.4984  0.2770 -0.3446
   69DOPC  C314 9507   6.664   3.509   4.022 -0.3377  0.2328 -0.0724
   69DOPC  H14X 9508   6.757   3.467   4.068  1.3677 -0.3617 -3.6957
   69DOPC  H14Y 9509   6.571   3.456   4.049  0.2429 -0.9971 -0.4173
   69DOPC  C315 9510   6.695   3.501   3.875 -0.8531  0.1348  0.2015
   69DOPC  H15X 9511   6.778   3.573   3.860 -3.4317  2.9238 -1.7437
   69DOPC  H15Y 9512   6.614   3.544   3.812  0.5926  1.4485 -0.8153
   69DOPC  C316 9513   6.735   3.354   3.832 -0.1378  0.3739  0.1310
   69DOPC  H16X 9514   6.830   3.330   3.885 -0.1087  0.2070  0.0041
   69DOPC  H16Y 9515   6.650   3.284   3.848 -0.7031  0.2719 -2.9083
   69DOPC  C317 9516   6.770   3.342   3.687 -0.6198  0.8443  0.4766
   69DOPC  H17X 9517   6.689   3.357   3.612  1.3157  1.1929 -1.6650
   69DOPC  H17Y 9518   6.850   3.415   3.661  1.3830 -1.4623 -0.3481
   69DOPC  C318 9519   6.826   3.200   3.647 -0.1518  0.4718  0.9902
   69DOPC  H18X 9520   6.738   3.132   3.645 -1.2618  1.8605 -1.5979
   69DOPC  H18Y 9521   6.866   3.195   3.543 -0.4802 -3.3322  0.9027
   69DOPC  H18Z 9522   6.912   3.160   3.705  0.6532 -1.6738 -1.4689
   70DOPC     N 9523   7.466   0.139   5.356  0.1844 -0.0787  0.4709
   70DOPC   C12 9524   7.371   0.227   5.282 -0.0873 -0.0459 -0.4250
   70DOPC  H12A 9525   7.388   0.323   5.328  0.7152  1.4617 -3.5899
   70DOPC  H12B 9526   7.273   0.187   5.304  0.3671 -0.4622  0.9121
   70DOPC   C13 9527   7.429   0.105   5.493 -0.0809  0.0485 -0.0710
   70DOPC  H13A 9528   7.401   0.194   5.548 -0.9822  0.1573 -0.6785
   70DOPC  H13B 9529   7.354   0.028   5.488  0.1053 -0.1169 -4.1860
   70DOPC  H13C 9530   7.517   0.069   5.545  1.6747 -0.6075 -3.2379
   70DOPC   C14 9531   7.598   0.209   5.360 -0.3691  0.0106 -0.0061
   70DOPC  H14A 9532   7.604   0.297   5.422 -2.2443  1.7325 -2.1347
   70DOPC  H14B 9533   7.668   0.142   5.408  1.0062 -0.0167 -1.9719
   70DOPC  H14C 9534   7.642   0.234   5.265  3.5513 -1.7648  1.1413
   70DOPC   C15 9535   7.482   0.007   5.278  0.0178  0.0730  0.0349
   70DOPC  H15A 9536   7.522   0.032   5.181 -0.2144  0.3827  0.0193
   70DOPC  H15B 9537   7.390   8.486   5.270  1.0181 -1.6684  0.1276
   70DOPC  H15C 9538   7.555   8.477   5.324  1.0712 -0.5158 -2.3124
   70DOPC   C11 9539   7.378   0.249   5.129  0.1410  0.2758 -0.2527
   70DOPC  H11A 9540   7.332   0.345   5.099 -0.9598  0.5136  2.0229
   70DOPC  H11B 9541   7.487   0.256   5.109  0.6877 -0.4958  2.1675
   70DOPC     P 9542   7.184   0.107   5.045 -0.1083 -0.1295  0.6392
   70DOPC   O13 9543   7.097   0.216   5.076  0.1614 -0.5310  0.5276
   70DOPC   O14 9544   7.175   8.520   5.130  0.4457 -0.0918  0.1067
   70DOPC   O12 9545   7.337   0.146   5.045  0.1482 -0.2986  0.2513
   70DOPC   O11 9546   7.164   0.053   4.898 -0.1920 -0.5937 -0.7344
   70DOPC    C1 9547   7.268   0.058   4.798 -0.2060 -0.4614 -0.5277
   70DOPC    HA 9548   7.333   8.504   4.806  0.3533 -0.0774 -0.7411
   70DOPC    HB 9549   7.326   0.152   4.798  0.1885 -0.6363 -2.9326
   70DOPC    C2 9550   7.192   0.058   4.667  0.4792  0.6449 -0.1810
   70DOPC    HS 9551   7.121   8.508   4.661  0.2795  0.8482 -0.6831
   70DOPC   O21 9552   7.286   0.047   4.561  0.2596 -0.1107  0.1857
   70DOPC   C21 9553   7.343   8.463   4.538  0.4745 -0.2738 -0.4637
   70DOPC   O22 9554   7.301   8.358   4.588  0.8839 -0.4444 -0.2010
   70DOPC   C22 9555   7.443   8.467   4.425  0.3918  0.4234  0.6093
   70DOPC   H2R 9556   7.511   8.385   4.455  0.1381  0.1275  0.3839
   70DOPC   H2S 9557   7.498   0.029   4.430  3.0182 -1.0369  2.3352
   70DOPC    C3 9558   7.102   0.179   4.649  0.3383  0.2934  1.0822
   70DOPC    HX 9559   7.169   0.267   4.656  0.0945  0.5223  0.5668
   70DOPC    HY 9560   7.029   0.191   4.732 -1.3632  3.6137 -0.6993
   70DOPC   O31 9561   7.039   0.185   4.516  0.1301 -0.1716 -0.2720
   70DOPC   C31 9562   6.922   0.125   4.508  0.1833 -0.6107 -0.5622
   70DOPC   O32 9563   6.860   0.065   4.592 -0.6325  0.1184 -0.0118
   70DOPC   C32 9564   6.873   0.132   4.362  0.4198 -0.3413 -0.4053
   70DOPC   H2X 9565   6.816   0.039   4.340 -2.1778  0.9941  0.2283
   70DOPC   H2Y 9566   6.794   0.210   4.366 -0.5991 -1.3495  0.1733
   70DOPC   C23 9567   7.381   8.445   4.286 -0.2328 -0.1523 -0.3091
   70DOPC   H3R 9568   7.285   8.502   4.283  0.1070  0.4952  0.6762
   70DOPC   H3S 9569   7.362   8.337   4.266 -0.2197 -0.0096 -1.1424
   70DOPC   C24 9570   7.470   8.501   4.176 -0.5210 -0.5523 -0.8571
   70DOPC   H4R 9571   7.574   8.462   4.183  0.2143  1.1010 -1.9400
   70DOPC   H4S 9572   7.471   0.077   4.183 -0.1622 -0.5902 -0.1915
   70DOPC   C25 9573   7.425   8.468   4.029 -0.5411 -0.1253  0.3171
   70DOPC   H5R 9574   7.422   8.358   4.014 -1.1044  0.0006 -0.5401
   70DOPC   H5S 9575   7.490   8.508   3.948 -0.1192 -1.9576 -0.2898
   70DOPC   C26 9576   7.279   8.514   3.994 -0.6262  0.2487 -0.1206
   70DOPC   H6R 9577   7.276   0.090   4.002 -2.2509  0.2653 -0.6717
   70DOPC   H6S 9578   7.214   8.466   4.071 -1.2400  1.5815  0.2244
   70DOPC   C27 9579   7.235   8.472   3.861 -0.1562  0.8071  0.2976
   70DOPC   H7R 9580   7.220   8.362   3.860 -0.4846  0.7918  2.5246
   70DOPC   H7S 9581   7.307   8.501   3.781 -0.8125 -0.8741 -0.9570
   70DOPC   C28 9582   7.099   0.001   3.823 -0.3382  0.8121  0.6153
   70DOPC   H8R 9583   7.108   0.109   3.848 -0.4380  1.3259 -1.4492
   70DOPC   H8S 9584   7.028   8.502   3.902  0.1734  2.2165  1.7148
   70DOPC   C29 9585   7.049   8.518   3.680  0.1261 -0.0606 -0.7318
   70DOPC   H9R 9586   7.132   8.526   3.607  1.3749  1.2921  0.7631
   70DOPC  C210 9587   6.919   8.519   3.648  0.8543 -0.0398 -0.0238
   70DOPC  H10R 9588   6.896   8.487   3.545 -2.3448 -2.4060  1.2622
   70DOPC  C211 9589   6.802   8.505   3.741  0.7321  0.0936 -0.1565
   70DOPC  H11R 9590   6.721   0.039   3.711  0.1580  1.2452  3.5554
   70DOPC  H11S 9591   6.817   8.524   3.850 -2.2819 -0.2060  0.3894
   70DOPC  C212 9592   6.738   8.364   3.740  0.1856 -0.8699 -0.6287
   70DOPC  H12R 9593   6.819   8.294   3.767  1.4501  1.0694  0.8799
   70DOPC  H12S 9594   6.673   8.354   3.651  0.4432  1.5738 -1.1570
   70DOPC  C213 9595   6.643   8.347   3.857 -0.4510  0.3564 -0.6613
   70DOPC  H13R 9596   6.548   8.405   3.851  0.4994  1.7919 -2.5951
   70DOPC  H13S 9597   6.697   8.387   3.946 -2.3641  1.3345  0.1338
   70DOPC  C214 9598   6.596   8.200   3.876  0.3661  0.2293 -0.5385
   70DOPC  H14R 9599   6.574   8.155   3.777  0.4859 -0.4001 -0.2867
   70DOPC  H14S 9600   6.499   8.205   3.930 -2.4441 -0.5325 -4.9986
   70DOPC  C215 9601   6.700   8.113   3.944 -0.3654  0.6526 -0.0674
   70DOPC  H15R 9602   6.724   8.141   4.049 -1.3833  0.0061  0.3435
   70DOPC  H15S 9603   6.800   8.116   3.896  0.0552  0.7616  0.7904
   70DOPC  C216 9604   6.647   7.973   3.964  0.0282 -0.4794  0.6605
   70DOPC  H16R 9605   6.609   7.943   3.864 -0.4382 -0.4295  0.8172
   70DOPC  H16S 9606   6.557   7.970   4.030  0.5707 -0.6038  1.4114
   70DOPC  C217 9607   6.756   7.860   3.994 -0.1435  0.1852  0.0011
   70DOPC  H17R 9608   6.704   7.774   4.040  0.8607 -0.7932 -0.6600
   70DOPC  H17S 9609   6.827   7.890   4.074  0.3435  0.1256 -0.4019
   70DOPC  C218 9610   6.832   7.820   3.868 -0.1730 -0.0598 -0.6776
   70DOPC  H18R 9611   6.847   7.906   3.799 -2.3088  1.0675  0.1590
   70DOPC  H18S 9612   6.782   7.745   3.804  2.9510 -0.7332 -2.5414
   70DOPC  H18T 9613   6.926   7.769   3.898 -0.8296  0.0557  1.8165
   70DOPC   C33 9614   6.989   0.179   4.274  0.8541 -0.3168 -0.9687
   70DOPC   H3X 9615   7.076   0.112   4.290  0.0794 -0.9516  0.9631
   70DOPC   H3Y 9616   7.014   0.281   4.310 -0.9657  0.0435 -0.6090
   70DOPC   C34 9617   6.957   0.164   4.128 -0.0663 -0.1267 -0.1004
   70DOPC   H4X 9618   6.928   0.063   4.092 -0.5200  0.0527 -0.2483
   70DOPC   H4Y 9619   7.039   0.205   4.066  0.1895  1.0880  0.9877
   70DOPC   C35 9620   6.837   0.259   4.095 -0.1391  0.3690 -0.2687
   70DOPC   H5X 9621   6.848   0.359   4.142 -1.3698  0.7794 -0.8006
   70DOPC   H5Y 9622   6.741   0.217   4.134  2.0441 -2.6552  2.4358
   70DOPC   C36 9623   6.831   0.285   3.945 -0.1519  0.2488 -0.4493
   70DOPC   H6X 9624   6.934   0.315   3.914  0.3555 -0.0005  0.9195
   70DOPC   H6Y 9625   6.805   0.198   3.882  1.1225 -0.7908  0.3979
   70DOPC   C37 9626   6.734   0.394   3.901 -0.4767  0.7955  0.7484
   70DOPC   H7X 9627   6.634   0.385   3.947 -1.2766  0.5141 -0.9540
   70DOPC   H7Y 9628   6.777   0.491   3.935  1.8520 -0.2764  1.0247
   70DOPC   C38 9629   6.709   0.392   3.742  0.3070  0.1914  0.7854
   70DOPC   H8X 9630   6.648   0.482   3.720 -0.0999  0.2757  2.1730
   70DOPC   H8Y 9631   6.646   0.308   3.708  0.8498 -1.1809  2.9362
   70DOPC   C39 9632   6.841   0.382   3.660  0.4238 -0.2125  0.0475
   70DOPC   H9X 9633   6.904   0.295   3.681 -0.4549 -1.0682 -0.7296
   70DOPC  C310 9634   6.900   0.489   3.594  0.0982 -0.4578 -0.6200
   70DOPC  H10X 9635   7.000   0.473   3.553  1.0809  0.6149  1.2311
   70DOPC  C311 9636   6.854   0.638   3.589  0.0258  0.2563  0.3296
   70DOPC  H11X 9637   6.939   0.710   3.594 -1.1688  1.6497  2.2776
   70DOPC  H11Y 9638   6.789   0.663   3.675 -0.5409 -2.5144  0.7748
   70DOPC  C312 9639   6.768   0.655   3.459 -0.3885 -0.6264 -0.2747
   70DOPC  H12X 9640   6.709   0.749   3.457 -1.0073 -1.0061  0.0622
   70DOPC  H12Y 9641   6.707   0.564   3.449  2.5245 -2.8269  0.5851
   70DOPC  C313 9642   6.852   0.648   3.332  0.2943 -0.5353  0.1238
   70DOPC  H13X 9643   6.928   0.571   3.359 -1.1032 -1.4588  1.6137
   70DOPC  H13Y 9644   6.797   0.614   3.242  1.1831  2.3640 -1.6695
   70DOPC  C314 9645   6.940   0.775   3.307 -0.4821 -0.3118 -0.1784
   70DOPC  H14X 9646   6.864   0.857   3.307 -0.2797 -0.0365  2.2832
   70DOPC  H14Y 9647   7.005   0.805   3.392 -1.6970 -0.1881  0.7371
   70DOPC  C315 9648   7.038   0.784   3.184 -0.5321  0.4704  0.2955
   70DOPC  H15X 9649   7.066   0.690   3.132 -0.0115  1.4264 -1.2396
   70DOPC  H15Y 9650   7.136   0.823   3.217  1.1646  0.7964 -4.3239
   70DOPC  C316 9651   6.998   0.877   3.067  0.7172  0.1165  0.5602
   70DOPC  H16X 9652   6.917   0.827   3.010  0.6226  1.4281 -0.5347
   70DOPC  H16Y 9653   6.957   0.975   3.101 -2.8919 -0.1582 -2.3138
   70DOPC  C317 9654   7.117   0.921   2.977  0.4914 -0.2495 -0.6159
   70DOPC  H17X 9655   7.096   1.017   2.925  2.3859 -0.3426 -1.6228
   70DOPC  H17Y 9656   7.208   0.945   3.036 -0.3359  0.2582  0.4862
   70DOPC  C318 9657   7.141   0.822   2.865 -0.2077  0.0698 -0.3611
   70DOPC  H18X 9658   7.165   0.718   2.896 -0.0918  0.4164  0.7415
   70DOPC  H18Y 9659   7.057   0.833   2.793 -0.4711 -1.3592 -0.2965
   70DOPC  H18Z 9660   7.222   0.854   2.797 -0.5880 -0.5927 -1.1406
   71DOPC     N 9661   4.494   0.106   5.540 -0.3180  0.9506 -0.4716
   71DOPC   C12 9662   4.628   0.088   5.611 -1.0926  0.8297  0.1435
   71DOPC  H12A 9663   4.628   0.000   5.673 -0.1855  0.4642 -0.3515
   71DOPC  H12B 9664   4.651   0.167   5.680  0.0907  1.1425 -0.5788
   71DOPC   C13 9665   4.380   0.105   5.638 -0.6151  0.2089 -0.1637
   71DOPC  H13A 9666   4.291   0.133   5.583  0.6811  1.9323 -1.5068
   71DOPC  H13B 9667   4.370   0.012   5.691  0.0698 -0.8401 -1.7789
   71DOPC  H13C 9668   4.407   0.186   5.704  1.3471 -0.1108 -0.5274
   71DOPC   C14 9669   4.468   0.007   5.432 -0.6763  0.0664 -0.4957
   71DOPC  H14A 9670   4.383   0.038   5.373  1.0052  1.0203 -2.5438
   71DOPC  H14B 9671   4.543   8.528   5.357 -1.6767  1.2324 -1.7674
   71DOPC  H14C 9672   4.437   8.452   5.484 -0.4599  0.5450  0.5036
   71DOPC   C15 9673   4.500   0.244   5.478  0.8871  0.4870 -0.1582
   71DOPC  H15A 9674   4.591   0.255   5.421  0.0791  0.1225 -1.5686
   71DOPC  H15B 9675   4.503   0.322   5.553 -1.5937  0.5769 -0.0596
   71DOPC  H15C 9676   4.418   0.263   5.409  0.8118 -1.5214 -0.6890
   71DOPC   C11 9677   4.758   0.077   5.518  0.3541 -0.1448 -0.2835
   71DOPC  H11A 9678   4.847   0.053   5.580 -1.4041 -2.4364  1.5660
   71DOPC  H11B 9679   4.733   8.525   5.453  0.0963  1.5312 -2.5352
   71DOPC     P 9680   4.874   0.199   5.324 -0.1701 -0.2565  0.2334
   71DOPC   O13 9681   4.979   0.119   5.380 -0.2697 -0.4465 -0.6020
   71DOPC   O14 9682   4.902   0.341   5.285  0.4335  0.5278  0.2263
   71DOPC   O12 9683   4.770   0.200   5.441  0.3608 -0.3291  0.6074
   71DOPC   O11 9684   4.797   0.120   5.208 -0.2638  0.2660 -0.8374
   71DOPC    C1 9685   4.681   0.169   5.138  0.0036  0.4650 -0.1669
   71DOPC    HA 9686   4.613   0.237   5.194  0.4734  0.5154  0.3569
   71DOPC    HB 9687   4.634   0.075   5.101  1.8683 -0.6694  0.2352
   71DOPC    C2 9688   4.703   0.240   5.000 -0.6332  0.6093  0.0267
   71DOPC    HS 9689   4.788   0.184   4.956 -1.9405 -1.5368  0.0764
   71DOPC   O21 9690   4.740   0.373   5.018 -0.5416  0.1174 -0.1106
   71DOPC   C21 9691   4.813   0.433   4.928 -0.2050  0.0593 -0.3821
   71DOPC   O22 9692   4.862   0.376   4.833 -0.5313  0.2464  0.0308
   71DOPC   C22 9693   4.810   0.584   4.951  0.1796  0.3210  0.6526
   71DOPC   H2R 9694   4.895   0.609   5.018  0.2484  1.8945  0.0201
   71DOPC   H2S 9695   4.714   0.606   5.002 -0.0032 -1.6519  1.2657
   71DOPC    C3 9696   4.574   0.223   4.913  0.0859  0.7758  0.7134
   71DOPC    HX 9697   4.486   0.271   4.962 -1.7705 -2.3260  0.7020
   71DOPC    HY 9698   4.553   0.116   4.894  2.0340  0.6490 -1.0645
   71DOPC   O31 9699   4.595   0.284   4.786  0.4283  0.2022 -0.3218
   71DOPC   C31 9700   4.651   0.208   4.689  0.6384 -0.2187 -0.2546
   71DOPC   O32 9701   4.671   0.091   4.700  0.4091  0.0892  0.2163
   71DOPC   C32 9702   4.678   0.306   4.570  0.1207  0.1037 -0.4630
   71DOPC   H2X 9703   4.601   0.385   4.557 -0.4924 -0.7379 -2.2361
   71DOPC   H2Y 9704   4.770   0.366   4.589 -1.1035  2.1675 -0.7509
   71DOPC   C23 9705   4.801   0.660   4.817 -0.0679  0.2113 -0.4464
   71DOPC   H3R 9706   4.759   0.762   4.831 -0.1099  0.1305  0.0503
   71DOPC   H3S 9707   4.734   0.609   4.745  0.6349 -0.0525 -0.9197
   71DOPC   C24 9708   4.935   0.677   4.754  0.0298 -0.2794  0.1758
   71DOPC   H4R 9709   4.980   0.576   4.744  0.1392 -0.4309  1.8970
   71DOPC   H4S 9710   5.003   0.726   4.827  0.1929 -0.1573 -0.0584
   71DOPC   C25 9711   4.925   0.745   4.617  0.0372 -0.0439  0.1463
   71DOPC   H5R 9712   4.856   0.831   4.607 -1.6513 -1.2246  1.1794
   71DOPC   H5S 9713   4.868   0.678   4.549  0.0194 -0.0669  0.1834
   71DOPC   C26 9714   5.053   0.774   4.532  0.7248  0.7433 -0.8069
   71DOPC   H6R 9715   5.026   0.826   4.438 -0.6761  1.8015  0.1347
   71DOPC   H6S 9716   5.087   0.674   4.498  0.6471  1.0333 -1.7729
   71DOPC   C27 9717   5.160   0.838   4.619 -0.0304  0.3873 -0.2143
   71DOPC   H7R 9718   5.194   0.758   4.689  0.3550  1.2075  0.5526
   71DOPC   H7S 9719   5.137   0.930   4.677 -1.6218 -0.8868  1.2868
   71DOPC   C28 9720   5.287   0.888   4.534  0.7524 -0.2997 -0.0763
   71DOPC   H8R 9721   5.352   0.930   4.614  0.4089 -0.8138  0.4764
   71DOPC   H8S 9722   5.251   0.973   4.472 -1.7970 -0.7527  0.6947
   71DOPC   C29 9723   5.363   0.779   4.454 -0.2404  0.3032 -0.3205
   71DOPC   H9R 9724   5.410   0.703   4.517 -1.2187  2.1929  2.9272
   71DOPC  C210 9725   5.376   0.769   4.324  0.1908  0.2645 -0.5716
   71DOPC  H10R 9726   5.420   0.679   4.277  0.4468 -0.2075  0.5401
   71DOPC  C211 9727   5.319   0.862   4.226 -1.3194 -0.1214 -0.2909
   71DOPC  H11R 9728   5.249   0.928   4.282  1.1707  1.7404  0.7955
   71DOPC  H11S 9729   5.267   0.810   4.143  1.2625 -0.5124 -1.7467
   71DOPC  C212 9730   5.427   0.946   4.148  0.3854 -0.1258 -1.1905
   71DOPC  H12R 9731   5.503   0.879   4.104  0.3401 -1.6045  0.7956
   71DOPC  H12S 9732   5.478   1.016   4.218 -0.9152  0.0712 -0.4020
   71DOPC  C213 9733   5.362   1.021   4.031 -0.0040 -0.4059  0.0391
   71DOPC  H13R 9734   5.434   1.099   3.995 -3.9134  2.6085 -2.1132
   71DOPC  H13S 9735   5.279   1.077   4.078 -1.1312  1.1655 -3.4641
   71DOPC  C214 9736   5.320   0.922   3.924  0.0150  0.1035  0.2585
   71DOPC  H14R 9737   5.246   0.848   3.962 -1.0736  1.2009  0.3342
   71DOPC  H14S 9738   5.407   0.858   3.899 -0.3470 -1.1870  2.0858
   71DOPC  C215 9739   5.260   0.977   3.795 -0.5615  0.0790  0.1716
   71DOPC  H15R 9740   5.343   1.028   3.742 -0.9628  0.0751 -0.4750
   71DOPC  H15S 9741   5.188   1.060   3.813 -0.0820  1.4287 -3.2020
   71DOPC  C216 9742   5.210   0.871   3.701 -0.2766  0.7658  0.4913
   71DOPC  H16R 9743   5.155   0.803   3.769  1.0217  1.0871  1.9328
   71DOPC  H16S 9744   5.290   0.804   3.662 -1.6618 -0.0929 -0.9434
   71DOPC  C217 9745   5.137   0.917   3.574 -0.6880  0.1601 -0.6256
   71DOPC  H17R 9746   5.197   0.937   3.483  0.7385 -2.3142 -0.3189
   71DOPC  H17S 9747   5.100   1.019   3.598 -1.0724 -0.6995  2.9732
   71DOPC  C218 9748   5.010   0.844   3.541 -0.4176  0.2954 -0.7505
   71DOPC  H18R 9749   5.039   0.740   3.514  1.3096 -0.2341  2.5815
   71DOPC  H18S 9750   4.960   0.899   3.459  2.3928  2.5378 -1.1085
   71DOPC  H18T 9751   4.945   0.849   3.632 -3.2078  0.0690 -2.6256
   71DOPC   C33 9752   4.702   0.230   4.436 -0.1641 -0.2181 -0.0593
   71DOPC   H3X 9753   4.620   0.157   4.424 -1.0438  0.8462 -0.6429
   71DOPC   H3Y 9754   4.796   0.173   4.454  1.0225  1.4408 -0.8043
   71DOPC   C34 9755   4.730   0.302   4.301  0.1205  0.1832 -0.3415
   71DOPC   H4X 9756   4.635   0.348   4.267 -0.5332 -1.6474 -1.0897
   71DOPC   H4Y 9757   4.757   0.223   4.228  1.4053  1.9813 -1.8982
   71DOPC   C35 9758   4.838   0.407   4.313  0.0616 -0.2350  0.3456
   71DOPC   H5X 9759   4.936   0.367   4.347  0.6898 -0.6800 -1.8105
   71DOPC   H5Y 9760   4.816   0.485   4.389 -0.4109  0.1324 -0.1646
   71DOPC   C36 9761   4.838   0.490   4.182 -0.1162  0.1925 -0.4387
   71DOPC   H6X 9762   4.864   0.425   4.096  1.7997 -0.9598  0.9288
   71DOPC   H6Y 9763   4.731   0.514   4.165  0.4636  2.0207 -1.9421
   71DOPC   C37 9764   4.917   0.621   4.194  0.0444  0.4497  0.3619
   71DOPC   H7X 9765   4.845   0.697   4.232 -0.2832  0.9565 -1.1781
   71DOPC   H7Y 9766   5.011   0.622   4.254  0.9349 -0.1676 -0.9646
   71DOPC   C38 9767   4.963   0.666   4.052  0.3391 -0.3948 -0.7271
   71DOPC   H8X 9768   5.051   0.601   4.032  0.2583 -0.7265 -0.0362
   71DOPC   H8Y 9769   4.999   0.770   4.068  1.0601 -0.4399 -1.8872
   71DOPC   C39 9770   4.856   0.687   3.947 -0.4592 -0.3084  0.4949
   71DOPC   H9X 9771   4.782   0.766   3.966 -0.5098 -0.2783  0.1813
   71DOPC  C310 9772   4.834   0.599   3.843 -0.2310 -0.9121 -0.2679
   71DOPC  H10X 9773   4.742   0.617   3.784 -0.8435 -0.8319  0.6966
   71DOPC  C311 9774   4.913   0.474   3.813 -0.5507  0.1393  0.1110
   71DOPC  H11X 9775   4.991   0.457   3.890 -1.3102  0.2752  0.9262
   71DOPC  H11Y 9776   4.968   0.492   3.719 -1.4859 -0.1592 -0.5145
   71DOPC  C312 9777   4.831   0.350   3.817  0.3749  0.4249 -0.0963
   71DOPC  H12X 9778   4.786   0.339   3.918 -1.3312  0.9501 -0.7620
   71DOPC  H12Y 9779   4.899   0.263   3.807  0.9724  0.8781 -0.0322
   71DOPC  C313 9780   4.726   0.338   3.707  0.1427 -0.4516 -0.3712
   71DOPC  H13X 9781   4.686   0.235   3.700 -0.7693  0.0333 -3.4115
   71DOPC  H13Y 9782   4.656   0.422   3.725  1.9560  0.9172  0.5923
   71DOPC  C314 9783   4.779   0.366   3.571 -0.2426  0.0996  1.0585
   71DOPC  H14X 9784   4.817   0.471   3.570  1.0691 -0.3363 -1.1605
   71DOPC  H14Y 9785   4.870   0.304   3.553 -0.7076  0.2145 -2.3801
   71DOPC  C315 9786   4.667   0.378   3.466  0.0095  0.4758 -0.1784
   71DOPC  H15X 9787   4.581   0.440   3.500 -3.0571 -3.1951 -0.6223
   71DOPC  H15Y 9788   4.618   0.279   3.461  0.4417  0.1537  1.4192
   71DOPC  C316 9789   4.707   0.434   3.327  0.3551  0.5757  0.5575
   71DOPC  H16X 9790   4.758   0.533   3.333 -1.5732  1.6941 -0.5615
   71DOPC  H16Y 9791   4.774   0.362   3.276 -1.2126 -2.1963  2.2056
   71DOPC  C317 9792   4.591   0.456   3.228 -0.1370 -0.9159  0.1697
   71DOPC  H17X 9793   4.526   0.367   3.213  0.1676 -0.9824 -0.8022
   71DOPC  H17Y 9794   4.519   0.530   3.269 -1.1791 -1.5397 -0.4922
   71DOPC  C318 9795   4.638   0.497   3.098 -0.1034 -0.6687  0.5266
   71DOPC  H18X 9796   4.689   0.595   3.103  1.0784 -1.0071 -2.5626
   71DOPC  H18Y 9797   4.716   0.431   3.053 -1.3878 -0.4888 -2.1743
   71DOPC  H18Z 9798   4.560   0.505   3.019  1.2634 -1.4018 -0.9657
   72DOPC     N 9799   1.778   4.864   5.159 -0.5488  0.1250  0.1685
   72DOPC   C12 9800   1.663   4.959   5.118  0.0977 -0.6398 -0.1700
   72DOPC  H12A 9801   1.664   5.043   5.186 -0.0616  1.1454 -2.2709
   72DOPC  H12B 9802   1.563   4.921   5.137 -1.6565  3.3062 -0.6150
   72DOPC   C13 9803   1.911   4.933   5.138  0.1001  0.2302 -0.3569
   72DOPC  H13A 9804   1.915   5.022   5.198 -1.0489  0.8669 -1.1883
   72DOPC  H13B 9805   1.998   4.871   5.157 -1.0039 -1.9435 -1.8615
   72DOPC  H13C 9806   1.912   4.953   5.031 -3.0466 -1.0400 -0.7454
   72DOPC   C14 9807   1.788   4.734   5.084  0.4757 -0.0442 -0.0122
   72DOPC  H14A 9808   1.705   4.673   5.117  0.4734  0.7347  1.5477
   72DOPC  H14B 9809   1.793   4.755   4.979 -2.0244  4.4619  0.5310
   72DOPC  H14C 9810   1.877   4.685   5.124  0.2851  1.0182  1.8445
   72DOPC   C15 9811   1.765   4.821   5.299 -0.0030 -0.1115 -0.2857
   72DOPC  H15A 9812   1.836   4.745   5.329 -0.7124  0.0487  1.9669
   72DOPC  H15B 9813   1.672   4.770   5.318  0.5147 -0.6238  0.9335
   72DOPC  H15C 9814   1.774   4.912   5.357 -1.6850 -0.1636  0.1028
   72DOPC   C11 9815   1.665   5.027   4.980  0.3800 -0.5300  0.1694
   72DOPC  H11A 9816   1.685   4.944   4.910 -0.1288 -1.2354  0.8309
   72DOPC  H11B 9817   1.568   5.073   4.948  2.0325  2.0259 -1.5263
   72DOPC     P 9818   1.759   5.262   5.051  0.0061 -0.1982  0.2369
   72DOPC   O13 9819   1.891   5.294   5.107 -0.3976 -0.6276 -0.3441
   72DOPC   O14 9820   1.641   5.264   5.133 -0.4152  0.5133  0.0910
   72DOPC   O12 9821   1.776   5.119   4.977 -0.4807 -0.6811 -0.1827
   72DOPC   O11 9822   1.732   5.364   4.931 -0.6384  0.4984  0.2749
   72DOPC    C1 9823   1.682   5.314   4.809 -0.3355  0.6832  0.1504
   72DOPC    HA 9824   1.625   5.219   4.823 -1.5422  1.5034  0.9664
   72DOPC    HB 9825   1.764   5.299   4.736 -1.1043  3.4026 -1.3838
   72DOPC    C2 9826   1.574   5.402   4.743  0.2372 -0.7002  0.1647
   72DOPC    HS 9827   1.550   5.369   4.639 -3.5905  1.3688  0.2351
   72DOPC   O21 9828   1.610   5.543   4.732 -0.2025 -0.2771 -0.3395
   72DOPC   C21 9829   1.707   5.566   4.640 -0.5708  0.5362 -0.3082
   72DOPC   O22 9830   1.761   5.483   4.569 -0.1582 -0.3832  0.2623
   72DOPC   C22 9831   1.743   5.708   4.654 -0.6076  0.0856  0.1737
   72DOPC   H2R 9832   1.772   5.729   4.760  0.3269  1.0566 -0.2584
   72DOPC   H2S 9833   1.648   5.761   4.632 -0.6430 -0.0009  0.1208
   72DOPC    C3 9834   1.444   5.391   4.829 -0.6164 -0.0965  0.1248
   72DOPC    HX 9835   1.478   5.429   4.927 -0.7676  1.1210 -0.2814
   72DOPC    HY 9836   1.419   5.283   4.836  0.6461 -0.4662 -0.7537
   72DOPC   O31 9837   1.331   5.458   4.761 -0.8858 -0.3182 -0.5626
   72DOPC   C31 9838   1.305   5.584   4.808  0.0718 -0.1106  0.2134
   72DOPC   O32 9839   1.387   5.652   4.868  0.3317 -0.0645  0.3382
   72DOPC   C32 9840   1.153   5.626   4.774 -0.7151 -0.1007 -0.0737
   72DOPC   H2X 9841   1.122   5.567   4.685  1.5483 -0.5918 -0.6059
   72DOPC   H2Y 9842   1.089   5.611   4.864 -0.6750  1.5986  0.2587
   72DOPC   C23 9843   1.859   5.770   4.582  0.4639  0.3356 -0.1009
   72DOPC   H3R 9844   1.810   5.825   4.499  1.3029  2.4669  0.7400
   72DOPC   H3S 9845   1.926   5.693   4.539  0.2343  0.0479  0.0525
   72DOPC   C24 9846   1.930   5.882   4.663 -0.3416  0.0933  0.0701
   72DOPC   H4R 9847   1.967   5.829   4.754  1.8516 -0.9270 -1.3145
   72DOPC   H4S 9848   1.855   5.955   4.698 -0.9347 -0.8849  0.9103
   72DOPC   C25 9849   2.052   5.960   4.607 -0.5845  0.6289 -0.0938
   72DOPC   H5R 9850   2.147   5.907   4.629 -2.2734 -1.9254  1.6045
   72DOPC   H5S 9851   2.061   6.063   4.647  0.2139  1.5126 -2.3733
   72DOPC   C26 9852   2.060   5.976   4.447 -0.5647  0.0234 -0.2703
   72DOPC   H6R 9853   1.977   6.036   4.404 -0.2043  0.9837  0.3193
   72DOPC   H6S 9854   2.048   5.878   4.397 -0.6873  0.1156 -0.4234
   72DOPC   C27 9855   2.193   6.041   4.406 -0.2743 -0.4884  0.3060
   72DOPC   H7R 9856   2.274   5.980   4.451  0.2224 -1.8791 -2.2669
   72DOPC   H7S 9857   2.204   6.140   4.454  2.3792 -0.9415  0.7825
   72DOPC   C28 9858   2.218   6.045   4.253  0.0762 -0.5761 -0.3467
   72DOPC   H8R 9859   2.292   6.127   4.240 -2.0972  1.2914 -1.7919
   72DOPC   H8S 9860   2.117   6.078   4.217  0.0643 -0.1035  0.1065
   72DOPC   C29 9861   2.268   5.918   4.189 -0.4386 -0.2966  0.6571
   72DOPC   H9R 9862   2.187   5.845   4.178 -3.1863  2.7074 -0.6558
   72DOPC  C210 9863   2.388   5.909   4.125 -0.0387 -0.2246  0.1337
   72DOPC  H10R 9864   2.427   5.815   4.084  1.2797 -0.1324  1.1174
   72DOPC  C211 9865   2.500   6.008   4.112  0.1350  0.0776 -0.5381
   72DOPC  H11R 9866   2.591   5.958   4.151  0.8135 -0.8813 -3.1409
   72DOPC  H11S 9867   2.481   6.108   4.158 -0.4161 -0.2802  0.0297
   72DOPC  C212 9868   2.524   6.027   3.962  0.6127 -0.7861 -0.9610
   72DOPC  H12R 9869   2.438   6.083   3.919  2.1560  1.8869 -0.7962
   72DOPC  H12S 9870   2.533   5.927   3.915  1.4574 -1.3920  0.4643
   72DOPC  C213 9871   2.656   6.107   3.925  0.0645  0.4809  0.0824
   72DOPC  H13R 9872   2.746   6.059   3.968  0.1206 -0.7511 -1.3213
   72DOPC  H13S 9873   2.629   6.201   3.977 -0.1039  0.7107 -0.4089
   72DOPC  C214 9874   2.684   6.139   3.779 -0.0002 -0.0009  0.3497
   72DOPC  H14R 9875   2.616   6.224   3.758 -1.0312 -0.5040  1.4952
   72DOPC  H14S 9876   2.663   6.054   3.711  2.3838 -3.1658  3.1993
   72DOPC  C215 9877   2.828   6.171   3.749 -0.0653  0.8997 -0.3763
   72DOPC  H15R 9878   2.841   6.194   3.641  0.6860  1.5178 -0.1589
   72DOPC  H15S 9879   2.899   6.089   3.773  0.6675  1.8153  0.6639
   72DOPC  C216 9880   2.878   6.289   3.834 -0.3788 -0.1177  0.1283
   72DOPC  H16R 9881   2.847   6.267   3.938  0.0047 -0.6618  0.1293
   72DOPC  H16S 9882   2.827   6.380   3.793 -0.6727 -0.2162  0.2772
   72DOPC  C217 9883   3.034   6.300   3.846  0.6536 -0.6101 -0.1551
   72DOPC  H17R 9884   3.061   6.330   3.742 -0.7320 -0.7158 -0.5712
   72DOPC  H17S 9885   3.085   6.202   3.849  3.3959  0.7049 -0.4062
   72DOPC  C218 9886   3.098   6.398   3.946  0.8946 -0.9666 -0.0735
   72DOPC  H18R 9887   3.108   6.353   4.048  0.4628  0.6658  0.7281
   72DOPC  H18S 9888   3.040   6.491   3.967  2.4371  0.4864 -1.9378
   72DOPC  H18T 9889   3.202   6.413   3.911  0.9284  2.6753  1.1972
   72DOPC   C33 9890   1.150   5.772   4.749  0.0609  0.0612  0.9069
   72DOPC   H3X 9891   1.223   5.830   4.809 -0.4242 -0.4045  1.9784
   72DOPC   H3Y 9892   1.051   5.805   4.786 -0.8120 -1.4743  0.0580
   72DOPC   C34 9893   1.147   5.801   4.595 -0.3831 -0.1454  0.1888
   72DOPC   H4X 9894   1.111   5.904   4.577  1.4282  1.0003  2.5082
   72DOPC   H4Y 9895   1.077   5.730   4.545  1.7460 -1.7497 -0.6828
   72DOPC   C35 9896   1.287   5.790   4.521  0.1121  1.0674  0.9497
   72DOPC   H5X 9897   1.317   5.686   4.546 -3.3382 -0.2897 -0.0028
   72DOPC   H5Y 9898   1.349   5.859   4.582 -0.8240  2.4553  0.3890
   72DOPC   C36 9899   1.298   5.826   4.373 -0.4556  0.6108  0.1891
   72DOPC   H6X 9900   1.245   5.921   4.351 -2.9230 -1.0568 -1.5491
   72DOPC   H6Y 9901   1.406   5.830   4.345 -0.5112 -0.7144 -0.2892
   72DOPC   C37 9902   1.224   5.717   4.291  0.0966 -0.4103  0.3908
   72DOPC   H7X 9903   1.254   5.613   4.312  1.7310  0.0496  0.4356
   72DOPC   H7Y 9904   1.115   5.730   4.313  0.3382  0.4556  1.1528
   72DOPC   C38 9905   1.249   5.739   4.138 -0.1165 -0.6989  0.2605
   72DOPC   H8X 9906   1.203   5.838   4.118 -0.3177 -0.4306  1.9193
   72DOPC   H8Y 9907   1.181   5.660   4.101  0.7676 -1.0795 -0.5932
   72DOPC   C39 9908   1.389   5.720   4.088  0.0659  0.2479  0.3072
   72DOPC   H9X 9909   1.448   5.657   4.156 -0.6862 -1.0389 -0.2021
   72DOPC  C310 9910   1.427   5.718   3.963 -0.3832  0.3771  0.4965
   72DOPC  H10X 9911   1.532   5.699   3.939 -0.6186 -1.3652  0.7322
   72DOPC  C311 9912   1.347   5.783   3.844 -0.6124  0.7057 -0.2869
   72DOPC  H11X 9913   1.253   5.829   3.882 -0.6966 -0.4099  0.9360
   72DOPC  H11Y 9914   1.328   5.705   3.768  1.0515  0.2685 -0.2934
   72DOPC  C312 9915   1.415   5.889   3.756  0.0113  0.3278  0.0740
   72DOPC  H12X 9916   1.481   5.829   3.690 -0.5145  0.2896 -0.4255
   72DOPC  H12Y 9917   1.469   5.964   3.818 -0.2128  2.1638 -1.8284
   72DOPC  C313 9918   1.320   5.973   3.674  0.3898 -0.1060 -0.5354
   72DOPC  H13X 9919   1.271   6.035   3.752  1.2503 -1.8912  1.5018
   72DOPC  H13Y 9920   1.371   6.046   3.607 -1.4115 -0.2421 -2.1478
   72DOPC  C314 9921   1.224   5.897   3.580  0.0379  0.2428 -0.2210
   72DOPC  H14X 9922   1.276   5.806   3.544 -2.1848 -0.4953 -1.8114
   72DOPC  H14Y 9923   1.136   5.855   3.635 -0.4197  1.5163  0.0474
   72DOPC  C315 9924   1.164   5.968   3.451 -0.0767 -0.0539 -0.5308
   72DOPC  H15X 9925   1.242   6.011   3.385  0.2326 -0.6572 -0.5601
   72DOPC  H15Y 9926   1.093   6.046   3.487  0.6611  0.1281  0.5755
   72DOPC  C316 9927   1.080   5.879   3.369 -0.5559  0.6091  0.0159
   72DOPC  H16X 9928   1.130   5.781   3.350 -1.7903 -0.3005  1.2348
   72DOPC  H16Y 9929   0.994   5.847   3.432  0.2894  1.0832  1.4566
   72DOPC  C317 9930   1.031   5.937   3.237  0.0195 -0.3641 -0.0813
   72DOPC  H17X 9931   1.007   6.046   3.246 -2.6797 -0.8002 -0.9298
   72DOPC  H17Y 9932   1.105   5.946   3.155 -1.8086 -0.2694 -1.7962
   72DOPC  C318 9933   0.901   5.877   3.188 -0.5815 -0.1794 -0.2053
   72DOPC  H18X 9934   0.818   5.909   3.254 -0.9732 -1.9150  0.1770
   72DOPC  H18Y 9935   0.887   5.903   3.081 -0.1349 -0.9291 -0.4517
   72DOPC  H18Z 9936   0.902   5.767   3.202 -0.0413  0.0074  1.5627
   73DOPC     N 9937   3.422   1.758   5.574  0.2598 -0.5823 -0.4775
   73DOPC   C12 9938   3.342   1.687   5.682 -1.2109  0.1177 -0.5465
   73DOPC  H12A 9939   3.343   1.747   5.772  0.8362 -0.9785  0.2399
   73DOPC  H12B 9940   3.388   1.593   5.709 -0.5674 -0.0535 -2.1090
   73DOPC   C13 9941   3.410   1.690   5.439 -0.6701  0.0827  0.7133
   73DOPC  H13A 9942   3.473   1.734   5.363  1.3927 -1.7354  1.3086
   73DOPC  H13B 9943   3.440   1.587   5.432  2.0778  0.8762 -0.2101
   73DOPC  H13C 9944   3.309   1.699   5.402 -0.4169  0.7924  0.1673
   73DOPC   C14 9945   3.568   1.773   5.609 -0.0531 -0.0294  0.3698
   73DOPC  H14A 9946   3.620   1.681   5.630  0.7055 -0.0208 -1.3740
   73DOPC  H14B 9947   3.609   1.820   5.521  0.1751 -1.9573 -0.6037
   73DOPC  H14C 9948   3.592   1.844   5.687  0.7577  2.0011 -1.6268
   73DOPC   C15 9949   3.370   1.896   5.564  0.0768 -0.1936  0.7187
   73DOPC  H15A 9950   3.345   1.951   5.654  0.9363  0.8291  0.3560
   73DOPC  H15B 9951   3.278   1.896   5.506 -0.1091 -1.3832  0.9866
   73DOPC  H15C 9952   3.452   1.951   5.521  0.2294 -1.0927 -0.1507
   73DOPC   C11 9953   3.200   1.649   5.652 -0.1478 -0.4388  0.9659
   73DOPC  H11A 9954   3.150   1.618   5.747 -2.2200  0.4424  0.2126
   73DOPC  H11B 9955   3.141   1.734   5.613  0.0921  1.1323  3.7452
   73DOPC     P 9956   3.080   1.510   5.459  0.0824 -0.0953 -0.5257
   73DOPC   O13 9957   3.065   1.613   5.356  0.1326 -0.5378 -0.0747
   73DOPC   O14 9958   2.956   1.488   5.540  0.3873  0.6707 -0.0529
   73DOPC   O12 9959   3.204   1.537   5.556 -0.0021  0.0886  0.2000
   73DOPC   O11 9960   3.117   1.378   5.380 -0.6116 -0.1486 -0.1764
   73DOPC    C1 9961   3.253   1.330   5.367  0.4799  0.2303 -0.4336
   73DOPC    HA 9962   3.278   1.254   5.443  0.3067  1.4157  0.8461
   73DOPC    HB 9963   3.331   1.408   5.384 -0.1275  1.1428 -1.6267
   73DOPC    C2 9964   3.273   1.256   5.226 -0.5518 -0.3586  0.5075
   73DOPC    HS 9965   3.381   1.231   5.212 -0.3322  1.0347 -0.4599
   73DOPC   O21 9966   3.234   1.346   5.122 -0.0745 -0.0534 -0.1648
   73DOPC   C21 9967   3.322   1.450   5.114  0.4428 -0.1383  0.5869
   73DOPC   O22 9968   3.426   1.455   5.174 -0.1544  0.1763 -0.1652
   73DOPC   C22 9969   3.259   1.551   5.030  0.1567  0.4068 -1.2829
   73DOPC   H2R 9970   3.202   1.626   5.090 -0.0849  1.0000 -2.2351
   73DOPC   H2S 9971   3.183   1.507   4.963 -0.7145 -0.7340  0.3980
   73DOPC    C3 9972   3.197   1.121   5.233 -0.2032  0.0031 -0.1398
   73DOPC    HX 9973   3.092   1.150   5.210 -0.6289  0.7908  2.3860
   73DOPC    HY 9974   3.213   1.071   5.331  1.6052  2.3296  0.8542
   73DOPC   O31 9975   3.245   1.023   5.142 -0.9311 -0.0462  0.0281
   73DOPC   C31 9976   3.192   1.026   5.021 -1.1671  0.9953  0.2934
   73DOPC   O32 9977   3.097   1.093   4.985 -0.4962 -0.4856  0.1841
   73DOPC   C32 9978   3.264   0.928   4.931  0.3422 -0.0386 -0.4834
   73DOPC   H2X 9979   3.373   0.932   4.951  0.6831  1.1963 -2.2647
   73DOPC   H2Y 9980   3.216   0.831   4.956 -0.5294  0.5903  0.3714
   73DOPC   C23 9981   3.359   1.631   4.948 -0.3790  0.1567 -0.4556
   73DOPC   H3R 9982   3.428   1.566   4.891  1.3522  1.5444 -0.0192
   73DOPC   H3S 9983   3.425   1.686   5.018  0.4317 -0.2949 -0.8620
   73DOPC   C24 9984   3.287   1.725   4.854 -0.0409 -0.0548 -0.3880
   73DOPC   H4R 9985   3.249   1.810   4.914 -5.2989 -1.7783 -0.7252
   73DOPC   H4S 9986   3.197   1.684   4.804 -0.8447  1.0706  0.0968
   73DOPC   C25 9987   3.382   1.781   4.744 -0.2234 -0.3087 -0.5718
   73DOPC   H5R 9988   3.414   1.692   4.686 -0.3826 -2.0697  1.9163
   73DOPC   H5S 9989   3.472   1.828   4.790 -0.9422 -0.7140  1.3194
   73DOPC   C26 9990   3.307   1.877   4.654 -0.0424 -0.5193 -0.7496
   73DOPC   H6R 9991   3.268   1.965   4.710 -0.5152 -0.7446 -0.7192
   73DOPC   H6S 9992   3.212   1.830   4.619 -0.4459  0.3837 -0.9069
   73DOPC   C27 9993   3.393   1.927   4.536 -0.1723  0.4274  0.1251
   73DOPC   H7R 9994   3.489   1.968   4.574 -0.1498 -0.3934  0.9826
   73DOPC   H7S 9995   3.343   2.009   4.480 -0.9316 -1.6169 -2.3964
   73DOPC   C28 9996   3.437   1.810   4.437  0.4269 -0.5099  1.3254
   73DOPC   H8R 9997   3.349   1.754   4.400  1.4918 -1.8664  0.7219
   73DOPC   H8S 9998   3.507   1.744   4.494  1.7657 -1.6423 -1.4219
   73DOPC   C29 9999   3.511   1.853   4.313  0.1193  0.5419 -0.3520
   73DOPC   H9R10000   3.618   1.847   4.335  0.2645  1.8460 -0.5846
   73DOPC  C21010001   3.452   1.896   4.201 -0.6547  0.5081  0.8792
   73DOPC  H10R10002   3.511   1.930   4.114 -0.2011 -0.7968  0.6600
   73DOPC  C21110003   3.308   1.901   4.163 -0.4503  0.0685 -0.5597
   73DOPC  H11R10004   3.290   2.009   4.146  0.9636  0.1006 -2.1008
   73DOPC  H11S10005   3.240   1.865   4.244  2.2934 -2.5231  0.7971
   73DOPC  C21210006   3.273   1.828   4.037 -0.4334  0.5925  0.0462
   73DOPC  H12R10007   3.340   1.854   3.953 -2.2987 -0.4766 -1.8625
   73DOPC  H12S10008   3.175   1.872   4.011 -1.2100 -1.1418 -0.1049
   73DOPC  C21310009   3.242   1.682   4.061 -0.6467  0.0986 -0.5688
   73DOPC  H13R10010   3.161   1.685   4.138  2.4676  1.4690  2.9626
   73DOPC  H13S10011   3.325   1.627   4.111 -0.8660  0.7324  0.5298
   73DOPC  C21410012   3.194   1.606   3.931  0.0171  0.6179 -0.0779
   73DOPC  H14R10013   3.103   1.655   3.891  0.6062  1.8638  0.0703
   73DOPC  H14S10014   3.147   1.510   3.961  0.1487  1.0628  1.6409
   73DOPC  C21510015   3.305   1.598   3.829  0.1682  0.3569  0.0525
   73DOPC  H15R10016   3.399   1.560   3.875  0.1933 -0.5936 -0.7366
   73DOPC  H15S10017   3.340   1.697   3.794  0.5410  0.0446 -0.4855
   73DOPC  C21610018   3.283   1.524   3.701  0.0598 -0.3942 -0.1675
   73DOPC  H16R10019   3.205   1.567   3.635  0.5809 -0.0656 -0.5719
   73DOPC  H16S10020   3.248   1.421   3.725 -2.0466  0.2824 -0.1666
   73DOPC  C21710021   3.416   1.530   3.619 -0.2173 -0.0861 -0.2921
   73DOPC  H17R10022   3.502   1.505   3.684 -0.9352  0.5165  0.9241
   73DOPC  H17S10023   3.440   1.631   3.580  2.8023 -0.3516  0.6924
   73DOPC  C21810024   3.409   1.439   3.502  0.0536  0.6980  0.6461
   73DOPC  H18R10025   3.315   1.460   3.448  0.5530  1.4288  0.0416
   73DOPC  H18S10026   3.420   1.335   3.542  3.2672  0.9010  0.5823
   73DOPC  H18T10027   3.490   1.453   3.428 -1.3232 -1.0356 -1.3066
   73DOPC   C3310028   3.251   0.955   4.780 -0.2156 -0.4118  0.2324
   73DOPC   H3X10029   3.298   1.055   4.766  0.1600 -0.1779  2.7415
   73DOPC   H3Y10030   3.143   0.957   4.754 -0.3791 -0.9558  0.8354
   73DOPC   C3410031   3.319   0.841   4.698 -0.0841  0.6467 -0.8916
   73DOPC   H4X10032   3.253   0.753   4.690  1.9634 -0.9698 -0.7164
   73DOPC   H4Y10033   3.400   0.814   4.769  0.6352  1.6701 -1.2914
   73DOPC   C3510034   3.377   0.898   4.563 -0.2549 -0.0750  0.2495
   73DOPC   H5X10035   3.443   0.987   4.581 -0.2737 -0.2623  1.3206
   73DOPC   H5Y10036   3.288   0.926   4.502 -0.9783  0.7175  1.6174
   73DOPC   C3610037   3.449   0.779   4.506  0.5500 -1.1920  0.0136
   73DOPC   H6X10038   3.521   0.745   4.584  1.1050 -1.3557 -0.5623
   73DOPC   H6Y10039   3.375   0.701   4.479  0.6344 -1.8960  1.6957
   73DOPC   C3710040   3.526   0.815   4.374  0.3636  0.0167 -0.2545
   73DOPC   H7X10041   3.462   0.888   4.321 -0.6660  1.4745  2.7502
   73DOPC   H7Y10042   3.622   0.867   4.394 -0.2174  1.2873 -0.6855
   73DOPC   C3810043   3.529   0.693   4.283  0.2423  0.3383  0.3062
   73DOPC   H8X10044   3.430   0.643   4.291 -0.1690  1.4068  2.6569
   73DOPC   H8Y10045   3.599   0.621   4.331  0.5488 -1.8041 -3.0361
   73DOPC   C3910046   3.578   0.719   4.152 -0.3545 -1.0361  0.9066
   73DOPC   H9X10047   3.675   0.771   4.154 -1.0127  0.5148 -2.1066
   73DOPC  C31010048   3.523   0.702   4.027 -0.2982  0.2164 -0.2942
   73DOPC  H10X10049   3.589   0.737   3.946 -0.5349  0.6931 -0.2892
   73DOPC  C31110050   3.380   0.661   4.004 -0.5870  0.1344 -0.3366
   73DOPC  H11X10051   3.317   0.673   4.095  0.8703  2.0121  0.4913
   73DOPC  H11Y10052   3.395   0.554   3.979  0.4691  0.4457 -1.1139
   73DOPC  C31210053   3.336   0.736   3.876 -0.1370 -0.4952  0.2199
   73DOPC  H12X10054   3.402   0.709   3.791 -0.5077  0.0627 -0.2532
   73DOPC  H12Y10055   3.342   0.845   3.894  1.6472 -0.5335  0.0985
   73DOPC  C31310056   3.193   0.699   3.844 -0.0235  0.4949 -0.1091
   73DOPC  H13X10057   3.189   0.588   3.839 -1.3413  0.5823 -1.3662
   73DOPC  H13Y10058   3.128   0.743   3.923 -0.8199  1.1022 -1.0884
   73DOPC  C31410059   3.146   0.754   3.708 -0.9895 -0.3641 -0.2489
   73DOPC  H14X10060   3.035   0.764   3.715 -0.8286  0.9857  0.7973
   73DOPC  H14Y10061   3.193   0.853   3.696 -0.3784 -0.7726 -1.2818
   73DOPC  C31510062   3.167   0.660   3.589 -0.5126 -0.6992  0.0968
   73DOPC  H15X10063   3.097   0.574   3.587  0.4997 -1.5325 -0.8100
   73DOPC  H15Y10064   3.266   0.609   3.588 -0.7471 -1.1608 -0.8157
   73DOPC  C31610065   3.154   0.742   3.467  0.1824 -0.2674 -0.5466
   73DOPC  H16X10066   3.066   0.810   3.474 -0.2052 -0.9027  1.2494
   73DOPC  H16Y10067   3.240   0.811   3.452 -0.0276 -0.1838 -1.4133
   73DOPC  C31710068   3.144   0.662   3.331 -0.9272  0.4234  0.1268
   73DOPC  H17X10069   3.055   0.596   3.344 -0.3570 -0.2942  0.4402
   73DOPC  H17Y10070   3.119   0.736   3.253  1.3579 -0.8384 -1.9359
   73DOPC  C31810071   3.266   0.580   3.292  0.1909  0.4583  0.3664
   73DOPC  H18X10072   3.273   0.555   3.184  0.6240 -0.0951  0.5178
   73DOPC  H18Y10073   3.359   0.627   3.331 -0.2265  1.5722  0.0563
   73DOPC  H18Z10074   3.263   0.482   3.344 -1.0671  0.5378  0.4697
   74DOPC     N10075   7.945   0.544   5.738 -1.1386  0.8154  0.2737
   74DOPC   C1210076   7.980   0.566   5.595  0.2174  0.6004  0.4315
   74DOPC  H12A10077   7.981   0.468   5.549 -0.9270  0.7841 -0.0079
   74DOPC  H12B10078   8.085   0.591   5.587  0.3629  0.7943  2.4320
   74DOPC   C1310079   8.030   0.442   5.802 -0.6573  0.4869  0.1755
   74DOPC  H13A10080   8.133   0.455   5.774 -0.9409  1.1574 -0.6036
   74DOPC  H13B10081   8.016   0.440   5.909 -0.3078  0.2513  0.2196
   74DOPC  H13C10082   8.012   0.344   5.759  1.9706  0.7178 -1.7282
   74DOPC   C1410083   7.800   0.498   5.741 -0.4364  0.0018 -0.3882
   74DOPC  H14A10084   7.785   0.409   5.682 -0.0283  0.1636 -0.7344
   74DOPC  H14B10085   7.765   0.478   5.842 -0.7768  1.6116 -0.1664
   74DOPC  H14C10086   7.737   0.577   5.703  1.8436  2.3603  0.4359
   74DOPC   C1510087   7.962   0.670   5.801 -0.0703  0.3282  0.1795
   74DOPC  H15A10088   8.064   0.704   5.790 -0.4480  0.7511 -3.0029
   74DOPC  H15B10089   7.934   0.666   5.905 -2.8254  0.7989 -0.4548
   74DOPC  H15C10090   7.907   0.743   5.743  0.2769  0.6056  0.1914
   74DOPC   C1110091   7.898   0.655   5.507 -0.2067  0.6381 -0.1795
   74DOPC  H11A10092   7.931   0.634   5.403  0.8688  0.9186  0.0904
   74DOPC  H11B10093   7.789   0.638   5.515  0.1900 -1.5934  1.7014
   74DOPC     P10094   8.058   0.861   5.473 -0.1979  0.2813  0.2982
   74DOPC   O1310095   8.172   0.770   5.499  0.1348 -0.0718  0.2246
   74DOPC   O1410096   8.068   0.992   5.535 -0.1902 -0.0602 -0.3176
   74DOPC   O1210097   7.924   0.795   5.524 -0.0355 -0.3115 -0.1609
   74DOPC   O1110098   8.026   0.893   5.322 -0.0614  0.0834 -0.5526
   74DOPC    C110099   7.901   0.957   5.287  1.2820 -0.0095 -0.1826
   74DOPC    HA10100   7.858   1.034   5.356  0.4242 -1.0438  0.4717
   74DOPC    HB10101   7.816   0.888   5.273  1.1339  0.6842 -3.4260
   74DOPC    C210102   7.920   1.036   5.154  0.4443  0.4688  0.7682
   74DOPC    HS10103   7.827   1.093   5.132 -0.1888 -1.5561 -2.5873
   74DOPC   O2110104   7.950   0.942   5.050 -0.5759 -0.2660 -0.1780
   74DOPC   C2110105   7.843   0.896   4.981  0.0119 -0.1029  0.2212
   74DOPC   O2210106   7.729   0.930   5.002  0.6849  0.4627  0.1579
   74DOPC   C2210107   7.881   0.804   4.872 -0.6912  0.3965  0.1044
   74DOPC   H2R10108   7.797   0.804   4.800  0.2684 -0.8257 -1.0675
   74DOPC   H2S10109   7.886   0.702   4.915 -1.6682 -0.0280 -0.7548
   74DOPC    C310110   8.040   1.135   5.167 -0.6661 -0.1422 -0.5086
   74DOPC    HX10111   8.136   1.092   5.201 -0.5789 -0.0046 -0.5797
   74DOPC    HY10112   8.010   1.201   5.251 -1.1602 -2.8332  1.5584
   74DOPC   O3110113   8.056   1.214   5.047  0.5449  0.4767  0.4776
   74DOPC   C3110114   8.129   1.160   4.952  0.2203 -0.1219 -0.8181
   74DOPC   O3210115   8.183   1.051   4.958  0.4363  0.0388 -0.7883
   74DOPC   C3210116   8.144   1.257   4.830  0.3593  0.1840 -0.3345
   74DOPC   H2X10117   8.058   1.327   4.835  0.4893  0.4756 -1.8535
   74DOPC   H2Y10118   8.238   1.313   4.850  0.0333  0.9078 -0.7728
   74DOPC   C2310119   8.011   0.842   4.790  0.8100  0.8726  0.3367
   74DOPC   H3R10120   8.094   0.829   4.862 -1.5771 -1.9392  2.9108
   74DOPC   H3S10121   8.011   0.949   4.762 -0.9241  0.2108 -2.6771
   74DOPC   C2410122   8.027   0.755   4.665  0.0493  0.1171  0.4843
   74DOPC   H4R10123   8.040   0.646   4.675  0.5291  0.2684  1.6476
   74DOPC   H4S10124   8.120   0.783   4.610  0.0937 -1.7859 -0.5006
   74DOPC   C2510125   7.911   0.777   4.565 -0.0936 -0.3126  0.2896
   74DOPC   H5R10126   7.890   0.885   4.556  0.7052 -0.2098 -0.5018
   74DOPC   H5S10127   7.825   0.713   4.595 -0.1807 -1.9281 -2.9525
   74DOPC   C2610128   7.946   0.740   4.419 -0.0124  0.1224 -0.2870
   74DOPC   H6R10129   7.859   0.722   4.352 -1.2095 -1.7406  1.6300
   74DOPC   H6S10130   8.009   0.648   4.424 -1.8738 -1.1404  1.6124
   74DOPC   C2710131   8.039   0.834   4.339  0.6438  0.4492  0.1818
   74DOPC   H7R10132   8.121   0.877   4.401  0.4310 -1.5121  1.9228
   74DOPC   H7S10133   7.979   0.920   4.301  0.0155  1.2115  2.6876
   74DOPC   C2810134   8.096   0.768   4.210 -0.2258  0.3350 -0.4958
   74DOPC   H8R10135   8.008   0.756   4.143 -0.0740 -0.3000 -0.5831
   74DOPC   H8S10136   8.140   0.670   4.239 -2.1631 -0.3490  0.3186
   74DOPC   C2910137   8.205   0.843   4.138  0.1530 -0.1450  0.3583
   74DOPC   H9R10138   8.305   0.837   4.183  0.1975 -0.0064  0.2763
   74DOPC  C21010139   8.197   0.882   4.006 -0.0958  0.1578 -0.9810
   74DOPC  H10R10140   8.291   0.920   3.965  0.1771  1.9238  1.0948
   74DOPC  C21110141   8.078   0.863   3.927  0.4944 -0.2282 -0.4037
   74DOPC  H11R10142   7.986   0.914   3.964  0.9430  0.1992  0.1219
   74DOPC  H11S10143   8.044   0.758   3.914 -1.7390  0.6591 -2.5534
   74DOPC  C21210144   8.106   0.899   3.779 -0.2770 -0.3226  0.0949
   74DOPC  H12R10145   8.170   0.820   3.734 -2.3973 -0.9487 -2.0135
   74DOPC  H12S10146   8.146   1.002   3.781 -1.2068  0.0421  0.2034
   74DOPC  C21310147   7.982   0.903   3.696  0.0933  0.4000 -0.0286
   74DOPC  H13R10148   7.921   0.978   3.750  1.5026  1.0067  0.7814
   74DOPC  H13S10149   7.926   0.808   3.682 -2.5219  1.9514 -0.9310
   74DOPC  C21410150   8.002   0.967   3.562 -0.3858 -0.1017 -0.3695
   74DOPC  H14R10151   8.060   0.899   3.496 -1.0911  1.2425 -2.4842
   74DOPC  H14S10152   8.054   1.065   3.563  1.0445 -0.8138 -1.2702
   74DOPC  C21510153   7.878   0.983   3.471 -0.1208  0.3923 -0.2454
   74DOPC  H15R10154   7.807   1.055   3.517 -0.9042 -0.6014  0.1277
   74DOPC  H15S10155   7.820   0.890   3.459  0.6556 -0.0785 -0.4323
   74DOPC  C21610156   7.901   1.040   3.328 -0.7626 -0.5998 -0.3098
   74DOPC  H16R10157   7.967   0.985   3.257 -0.5926  0.3745 -0.9392
   74DOPC  H16S10158   7.950   1.138   3.350 -0.5505 -0.5255 -1.0716
   74DOPC  C21710159   7.776   1.077   3.246 -0.0287 -0.0974 -0.2899
   74DOPC  H17R10160   7.710   0.988   3.240  1.9849 -1.5980 -1.6109
   74DOPC  H17S10161   7.816   1.100   3.145 -0.1316  1.8286  0.0627
   74DOPC  C21810162   7.703   1.206   3.298  0.1375  0.6764  0.0343
   74DOPC  H18R10163   7.603   1.229   3.255 -0.3887  0.9905  1.4003
   74DOPC  H18S10164   7.771   1.289   3.270 -0.8464  1.1666 -0.9881
   74DOPC  H18T10165   7.702   1.207   3.409 -0.6963  3.7760  0.0774
   74DOPC   C3310166   8.148   1.178   4.698 -0.7089 -0.7478 -0.1837
   74DOPC   H3X10167   8.058   1.161   4.635  0.1329  0.4493 -1.7796
   74DOPC   H3Y10168   8.199   1.082   4.719 -1.9574 -1.6377 -1.1083
   74DOPC   C3410169   8.246   1.236   4.599 -0.1347 -0.5162  0.3700
   74DOPC   H4X10170   8.338   1.279   4.644  0.0864 -0.8649  0.2638
   74DOPC   H4Y10171   8.192   1.323   4.557  1.3393  0.0565 -0.4091
   74DOPC   C3510172   8.295   1.145   4.485 -0.3456  0.2913  0.0025
   74DOPC   H5X10173   8.214   1.088   4.435 -0.1945  1.4123 -1.5780
   74DOPC   H5Y10174   8.359   1.067   4.531 -1.5837 -1.3909 -1.0100
   74DOPC   C3610175   8.366   1.232   4.381  0.2548 -0.4079  0.1486
   74DOPC   H6X10176   8.292   1.299   4.332 -0.3259 -2.4874 -2.0033
   74DOPC   H6Y10177   8.439   1.292   4.440 -0.5739  0.0750  0.6900
   74DOPC   C3710178   8.434   1.151   4.269  0.2016  0.4081 -0.7236
   74DOPC   H7X10179   8.509   1.086   4.319 -1.0013  0.7065  1.6316
   74DOPC   H7Y10180   8.358   1.082   4.225  0.1135  0.2015 -0.2545
   74DOPC   C3810181   8.501   1.233   4.158 -0.0448 -0.7226  0.1967
   74DOPC   H8X10182   0.047   1.289   4.208 -1.5981  2.8627 -0.9601
   74DOPC   H8Y10183   8.428   1.306   4.117  0.5570  0.0611  0.5011
   74DOPC   C3910184   0.025   1.148   4.048  0.0272  0.5295  0.0071
   74DOPC   H9X10185   0.125   1.103   4.057  0.1578  0.7362 -0.3952
   74DOPC  C31010186   8.503   1.150   3.922  0.0758  0.0365  0.2279
   74DOPC  H10X10187   0.012   1.094   3.838 -2.8398  1.5775 -2.5705
   74DOPC  C31110188   8.367   1.197   3.885 -0.4530 -0.1410 -0.1299
   74DOPC  H11X10189   8.297   1.191   3.972  3.7142  0.0399  3.5641
   74DOPC  H11Y10190   8.333   1.125   3.807 -0.4867  0.4478 -0.6580
   74DOPC  C31210191   8.375   1.333   3.828 -0.4553 -0.6394 -0.3739
   74DOPC  H12X10192   8.410   1.410   3.900 -0.4536 -1.2197  0.2608
   74DOPC  H12Y10193   8.275   1.370   3.799  0.9014  1.7512 -2.4028
   74DOPC  C31310194   8.461   1.349   3.702  0.1423 -0.3131  0.2031
   74DOPC  H13X10195   0.018   1.287   3.693  0.9184  1.0859 -2.6539
   74DOPC  H13Y10196   8.395   1.316   3.619 -0.2992 -1.4218  0.9717
   74DOPC  C31410197   8.503   1.496   3.694 -0.2389  0.5692 -0.4950
   74DOPC  H14X10198   8.411   1.557   3.703 -2.2420 -2.4401  1.3925
   74DOPC  H14Y10199   0.018   1.528   3.788  1.0894  3.3971 -2.0217
   74DOPC  C31510200   0.048   1.531   3.575 -0.5407  0.7153 -0.0399
   74DOPC  H15X10201   8.519   1.496   3.491 -0.5571  0.6663 -0.0065
   74DOPC  H15Y10202   0.144   1.477   3.567 -1.1925 -0.3624 -0.9345
   74DOPC  C31610203   0.047   1.686   3.555 -0.6265  0.4053 -0.7914
   74DOPC  H16X10204   8.481   1.732   3.546 -0.6229  0.3300 -1.2336
   74DOPC  H16Y10205   0.103   1.737   3.636 -2.2416 -0.1218  0.7267
   74DOPC  C31710206   0.117   1.713   3.422  0.3043  0.1797  0.0171
   74DOPC  H17X10207   0.060   1.659   3.343  0.1251 -1.4444  1.1999
   74DOPC  H17Y10208   0.108   1.822   3.401  1.2784  0.2048 -0.3162
   74DOPC  C31810209   0.269   1.684   3.402  0.5793 -0.6069 -0.0914
   74DOPC  H18X10210   0.288   1.575   3.410 -1.4946 -0.9619  0.7463
   74DOPC  H18Y10211   0.309   1.726   3.307  1.1315 -0.2811  0.2782
   74DOPC  H18Z10212   0.326   1.739   3.480 -0.3247 -0.0360  0.1865
   75DOPC     N10213   1.015   5.520   5.488 -0.6418 -0.1797 -0.2971
   75DOPC   C1210214   0.900   5.590   5.414 -0.3632  0.4717 -0.1655
   75DOPC  H12A10215   0.812   5.586   5.476 -0.3278  1.1371 -0.0681
   75DOPC  H12B10216   0.875   5.531   5.327 -0.1367  0.2190 -0.0613
   75DOPC   C1310217   1.068   5.601   5.609 -0.2488 -0.0254  0.2780
   75DOPC  H13A10218   1.154   5.548   5.648 -0.7062 -0.6894  0.3976
   75DOPC  H13B10219   1.113   5.691   5.571 -0.5001  0.4322  1.0398
   75DOPC  H13C10220   0.993   5.606   5.686 -1.0638 -0.2454 -0.4908
   75DOPC   C1410221   1.137   5.498   5.397  0.2607  0.5441  0.2516
   75DOPC  H14A10222   1.211   5.441   5.450 -1.3502 -1.4006  0.5357
   75DOPC  H14B10223   1.116   5.448   5.303  3.4463  0.1034 -0.3237
   75DOPC  H14C10224   1.176   5.597   5.380  1.5056  0.1169  0.5402
   75DOPC   C1510225   0.962   5.391   5.531 -0.0057 -0.5623 -0.6246
   75DOPC  H15A10226   0.951   5.318   5.452 -0.4705 -0.7938 -0.3522
   75DOPC  H15B10227   0.859   5.394   5.565  0.3482 -1.4082  0.5804
   75DOPC  H15C10228   1.023   5.353   5.612 -1.1251 -0.0506  0.5080
   75DOPC   C1110229   0.929   5.736   5.381  0.3958 -1.2906 -0.1504
   75DOPC  H11A10230   0.843   5.789   5.335  0.9257  0.3435  0.6455
   75DOPC  H11B10231   0.937   5.801   5.471 -0.0038 -0.0462 -0.9998
   75DOPC     P10232   1.046   5.751   5.136  0.5321  0.4038  0.2150
   75DOPC   O1310233   1.007   5.610   5.109  0.4925  0.1011  0.0034
   75DOPC   O1410234   1.179   5.784   5.083 -0.5870 -0.1505  0.2378
   75DOPC   O1210235   1.046   5.764   5.293  0.1956  0.1778 -0.2354
   75DOPC   O1110236   0.929   5.850   5.101  0.3400  0.9579 -0.5116
   75DOPC    C110237   0.958   5.994   5.107 -0.9685 -0.0317 -0.3255
   75DOPC    HA10238   1.060   6.016   5.144 -1.0250 -2.3724  1.4533
   75DOPC    HB10239   0.896   6.053   5.178 -0.1797  0.5071 -0.0661
   75DOPC    C210240   0.929   6.066   4.969  0.1624 -0.0391 -0.0808
   75DOPC    HS10241   1.014   6.041   4.902 -0.0672 -0.4160 -0.2336
   75DOPC   O2110242   0.902   6.210   4.977  0.2787  0.1457 -0.1980
   75DOPC   C2110243   1.003   6.284   5.020 -0.5881  0.8094  0.3819
   75DOPC   O2210244   1.114   6.241   5.055  0.4438  0.2741  0.0310
   75DOPC   C2210245   0.967   6.423   5.013  0.5926 -0.6698  0.0250
   75DOPC   H2R10246   1.059   6.479   5.040 -0.4069  0.5828  0.9897
   75DOPC   H2S10247   0.885   6.442   5.086  0.7419 -2.0189  0.5707
   75DOPC    C310248   0.810   5.989   4.906  0.5606  0.7351 -0.2790
   75DOPC    HX10249   0.725   5.993   4.979 -0.1405 -2.2598 -0.7868
   75DOPC    HY10250   0.829   5.881   4.887 -4.4306 -0.9271  2.1355
   75DOPC   O3110251   0.788   6.032   4.770 -0.0146  0.2430  0.2710
   75DOPC   C3110252   0.710   6.136   4.752  0.2657  0.2574 -0.5823
   75DOPC   O3210253   0.632   6.177   4.835 -0.3851 -0.4707  0.0354
   75DOPC   C3210254   0.742   6.187   4.609  0.2248 -0.4027  0.4472
   75DOPC   H2X10255   0.832   6.250   4.628  2.9271 -4.3090  2.0190
   75DOPC   H2Y10256   0.779   6.107   4.541  2.2567  0.4969  0.4261
   75DOPC   C2310257   0.925   6.475   4.869 -0.5046 -0.3594  0.3488
   75DOPC   H3R10258   0.905   6.584   4.878  2.1581  0.0960  1.5509
   75DOPC   H3S10259   0.838   6.422   4.824 -0.6025  0.8270 -0.9162
   75DOPC   C2410260   1.030   6.459   4.759 -1.5620  0.0390 -1.0144
   75DOPC   H4R10261   1.010   6.516   4.666  0.2698  3.0267  0.2410
   75DOPC   H4S10262   1.053   6.354   4.731 -0.8915  0.2677 -1.3472
   75DOPC   C2510263   1.170   6.523   4.794  0.4845  0.6291 -0.5815
   75DOPC   H5R10264   1.209   6.457   4.874 -1.6835 -1.2353 -0.9782
   75DOPC   H5S10265   1.161   6.628   4.831 -0.1384  0.5090 -0.3857
   75DOPC   C2610266   1.277   6.537   4.675  0.2870 -0.3412  0.0302
   75DOPC   H6R10267   1.381   6.544   4.713  0.6621 -1.3872 -0.7370
   75DOPC   H6S10268   1.252   6.616   4.601  3.1298 -0.0052 -0.7085
   75DOPC   C2710269   1.302   6.410   4.587  0.3603 -0.9677 -0.0264
   75DOPC   H7R10270   1.289   6.318   4.648 -1.4785 -0.0779  1.0221
   75DOPC   H7S10271   1.402   6.412   4.540  2.0008 -0.5722  3.2021
   75DOPC   C2810272   1.204   6.394   4.468 -0.5078  0.0643 -0.1513
   75DOPC   H8R10273   1.200   6.484   4.403 -1.3853  0.4379  0.3909
   75DOPC   H8S10274   1.098   6.390   4.502 -0.3625  2.0245  0.6807
   75DOPC   C2910275   1.253   6.264   4.404  0.3826  0.2854  0.4501
   75DOPC   H9R10276   1.275   6.193   4.485 -2.9189 -0.5949  0.7452
   75DOPC  C21010277   1.277   6.237   4.272  0.2990  0.5603  0.0301
   75DOPC  H10R10278   1.301   6.135   4.240  2.0773  0.6912  0.8508
   75DOPC  C21110279   1.266   6.350   4.164  0.0725 -0.0081 -0.5859
   75DOPC  H11R10280   1.364   6.403   4.162  0.1973 -0.1860 -3.6419
   75DOPC  H11S10281   1.206   6.440   4.189  1.7599  1.6123 -2.1162
   75DOPC  C21210282   1.227   6.312   4.018 -0.3040 -0.5746  0.5357
   75DOPC  H12R10283   1.202   6.396   3.950  0.4349 -0.8266 -0.0506
   75DOPC  H12S10284   1.134   6.252   4.009 -0.6476  0.1312 -0.7820
   75DOPC  C21310285   1.340   6.253   3.931  0.1351 -0.8087 -0.3735
   75DOPC  H13R10286   1.311   6.219   3.830 -0.4115  2.4625 -1.4212
   75DOPC  H13S10287   1.366   6.157   3.982 -0.7672 -0.3524  1.0087
   75DOPC  C21410288   1.457   6.356   3.918  0.2964  0.1825 -0.6106
   75DOPC  H14R10289   1.480   6.394   4.020  1.1418  0.4852 -0.9098
   75DOPC  H14S10290   1.431   6.446   3.858 -2.4122 -2.0015 -2.9710
   75DOPC  C21510291   1.584   6.289   3.872  0.4178 -0.5195 -0.1673
   75DOPC  H15R10292   1.610   6.194   3.924  0.3463  0.4449  1.7279
   75DOPC  H15S10293   1.670   6.357   3.894  0.0023 -0.0277 -0.0472
   75DOPC  C21610294   1.586   6.275   3.720  0.6284 -0.1119 -1.0917
   75DOPC  H16R10295   1.537   6.367   3.681  0.3479  1.5786  2.7403
   75DOPC  H16S10296   1.530   6.182   3.698 -0.9994  0.4583  0.4398
   75DOPC  C21710297   1.727   6.271   3.666  0.0061  0.1412  0.4271
   75DOPC  H17R10298   1.781   6.175   3.678  0.2908 -0.0646 -1.9277
   75DOPC  H17S10299   1.788   6.349   3.716 -0.6551  1.3652 -0.6084
   75DOPC  C21810300   1.729   6.293   3.509  0.0515  0.3961 -0.6625
   75DOPC  H18R10301   1.715   6.194   3.461  1.3912  1.0043 -2.4105
   75DOPC  H18S10302   1.825   6.344   3.486  0.0542  0.9129  0.4419
   75DOPC  H18T10303   1.649   6.366   3.484 -0.2483  0.6514  0.9266
   75DOPC   C3310304   0.622   6.257   4.544 -0.2405  0.2382 -0.9071
   75DOPC   H3X10305   0.574   6.333   4.609 -0.2698 -1.3630  1.0069
   75DOPC   H3Y10306   0.538   6.187   4.524  0.5023 -0.1525 -2.9623
   75DOPC   C3410307   0.669   6.324   4.413  0.0621 -0.3433 -0.6913
   75DOPC   H4X10308   0.578   6.372   4.372 -1.5702 -0.4046  2.5796
   75DOPC   H4Y10309   0.700   6.240   4.347 -0.2135 -0.1787 -1.0312
   75DOPC   C3510310   0.779   6.431   4.429  0.2233  0.3674 -0.0080
   75DOPC   H5X10311   0.875   6.382   4.452 -1.3974 -2.9939  0.2165
   75DOPC   H5Y10312   0.752   6.506   4.507 -2.7725 -1.1431  0.5634
   75DOPC   C3610313   0.804   6.513   4.304  0.0682 -0.0407 -0.0573
   75DOPC   H6X10314   0.702   6.527   4.262  0.3642  1.9196 -0.2186
   75DOPC   H6Y10315   0.852   6.608   4.337  1.1717 -0.5429 -0.1513
   75DOPC   C3710316   0.883   6.445   4.188  0.3648 -0.0122 -0.5177
   75DOPC   H7X10317   0.987   6.426   4.223 -0.1764 -0.7976  0.7349
   75DOPC   H7Y10318   0.844   6.344   4.166  1.4122 -0.0017 -2.7388
   75DOPC   C3810319   0.888   6.527   4.058 -0.5360  0.2733 -0.7101
   75DOPC   H8X10320   0.951   6.478   3.982 -0.1023 -0.4274  0.0919
   75DOPC   H8Y10321   0.934   6.624   4.087 -2.4344  0.7589  0.9034
   75DOPC   C3910322   0.748   6.546   4.004 -0.0419  0.0686  1.0872
   75DOPC   H9X10323   0.667   6.494   4.057 -0.2804 -0.1190  0.5387
   75DOPC  C31010324   0.719   6.609   3.889  0.1897  0.4093  0.0528
   75DOPC  H10X10325   0.611   6.623   3.876 -0.3172 -0.8836  2.3873
   75DOPC  C31110326   0.814   6.684   3.801 -0.3184 -0.7087 -0.1430
   75DOPC  H11X10327   0.804   6.659   3.693 -0.1345  0.2330 -0.3874
   75DOPC  H11Y10328   0.915   6.651   3.835 -0.5976  0.9873  2.7027
   75DOPC  C31210329   0.793   6.829   3.826  0.3085 -0.3710 -0.3256
   75DOPC  H12X10330   0.814   6.846   3.934  2.9692  2.6329 -1.1766
   75DOPC  H12Y10331   0.689   6.870   3.816 -0.1636 -0.5790  2.7542
   75DOPC  C31310332   0.878   6.932   3.752 -0.4280 -0.2634 -0.6365
   75DOPC  H13X10333   0.844   7.031   3.791  1.1306 -0.5903  1.7773
   75DOPC  H13Y10334   0.984   6.927   3.785 -0.7620  1.0303  0.7761
   75DOPC  C31410335   0.874   6.915   3.592  0.3172  0.3132  0.3205
   75DOPC  H14X10336   0.930   6.824   3.561 -0.6698  0.1736 -1.1277
   75DOPC  H14Y10337   0.766   6.908   3.564  0.6694  1.3610 -1.4073
   75DOPC  C31510338   0.926   7.037   3.516 -0.1264 -0.3098 -0.2399
   75DOPC  H15X10339   0.850   7.116   3.536  2.5360  2.2054  0.6890
   75DOPC  H15Y10340   0.934   7.017   3.407  0.2580  0.8126 -0.4290
   75DOPC  C31610341   1.063   7.090   3.558 -0.3007 -0.4825 -0.2202
   75DOPC  H16X10342   1.072   7.130   3.661 -0.7773 -3.0761  0.9199
   75DOPC  H16Y10343   1.124   6.999   3.538  0.7600  0.2210 -0.2450
   75DOPC  C31710344   1.107   7.208   3.462  0.3147  0.4275  0.1399
   75DOPC  H17X10345   1.040   7.295   3.477 -1.9647 -1.0517 -0.8344
   75DOPC  H17Y10346   1.208   7.240   3.496  0.2716  2.2838 -1.2793
   75DOPC  C31810347   1.124   7.170   3.312  0.2588 -0.6858  0.1358
   75DOPC  H18X10348   1.027   7.154   3.260  0.4504  3.5821 -1.9641
   75DOPC  H18Y10349   1.179   7.247   3.254 -0.8066 -0.6244 -0.8282
   75DOPC  H18Z10350   1.187   7.079   3.301 -0.2248 -0.9790 -0.2857
   76DOPC     N10351   0.321   1.670   5.560 -0.0782  0.0086  0.2470
   76DOPC   C1210352   0.282   1.760   5.434  0.6641 -0.2511 -0.3888
   76DOPC  H12A10353   0.347   1.738   5.351  0.5589  1.5756 -0.9969
   76DOPC  H12B10354   0.312   1.862   5.451 -0.2161  0.1488 -1.1917
   76DOPC   C1310355   0.235   1.730   5.667  0.7389 -0.3241 -0.3978
   76DOPC  H13A10356   0.131   1.719   5.638  0.5860  1.4975 -0.6246
   76DOPC  H13B10357   0.238   1.674   5.759 -2.1282  0.0888  0.0582
   76DOPC  H13C10358   0.253   1.836   5.678  0.0377 -0.2280 -0.0806
   76DOPC   C1410359   0.460   1.685   5.595  0.4809 -0.5861 -0.3976
   76DOPC  H14A10360   0.523   1.671   5.508  1.8921  0.1505  0.4552
   76DOPC  H14B10361   0.478   1.788   5.624  0.6463 -0.8702  0.5522
   76DOPC  H14C10362   0.498   1.616   5.669  4.0867 -0.2826 -1.7318
   76DOPC   C1510363   0.288   1.527   5.524 -0.0904  0.1068 -0.0955
   76DOPC  H15A10364   0.381   1.488   5.484 -0.2837  1.8623 -2.4296
   76DOPC  H15B10365   0.200   1.522   5.463 -0.0654  1.4941 -0.2791
   76DOPC  H15C10366   0.274   1.479   5.620  0.4619 -1.0914 -0.5857
   76DOPC   C1110367   0.133   1.759   5.377 -0.4893 -0.0238  0.0021
   76DOPC  H11A10368   0.139   1.804   5.275  3.8130  1.9807  0.9162
   76DOPC  H11B10369   0.104   1.652   5.365  0.5483 -0.1383 -1.9633
   76DOPC     P10370   0.049   1.982   5.480  0.1999 -0.0216  0.2128
   76DOPC   O1310371   0.189   2.023   5.488 -0.0194  0.4404 -0.1832
   76DOPC   O1410372   8.504   2.003   5.609  0.4237  0.0588  0.6560
   76DOPC   O1210373   0.041   1.825   5.460  0.5216  0.0087  0.9162
   76DOPC   O1110374   8.505   2.040   5.356  0.3819  0.2296 -0.4630
   76DOPC    C110375   8.373   1.985   5.325 -0.7225 -0.2883  0.0854
   76DOPC    HA10376   8.322   1.953   5.419 -0.9319 -0.3203 -0.0388
   76DOPC    HB10377   8.386   1.891   5.267 -1.6888 -0.3089 -0.1099
   76DOPC    C210378   8.288   2.075   5.231  0.0860  0.3305  0.4555
   76DOPC    HS10379   8.183   2.042   5.244  0.3873 -1.4846 -1.1979
   76DOPC   O2110380   8.328   2.067   5.097 -0.2305 -0.1065  0.4115
   76DOPC   C2110381   8.286   1.952   5.035 -0.2928  0.6473  0.1630
   76DOPC   O2210382   8.231   1.860   5.086 -0.9970  0.2647  0.4668
   76DOPC   C2210383   8.324   1.962   4.886 -0.8988 -0.3975 -0.4723
   76DOPC   H2R10384   8.338   1.858   4.851 -2.4224 -1.2719  1.3378
   76DOPC   H2S10385   8.425   2.008   4.886 -1.2615  0.5277  1.8504
   76DOPC    C310386   8.309   2.219   5.280 -0.1642 -0.4379  0.0171
   76DOPC    HX10387   8.418   2.241   5.281 -0.4861  1.3305  0.2643
   76DOPC    HY10388   8.267   2.226   5.383  0.1025 -0.7460  0.1492
   76DOPC   O3110389   8.263   2.320   5.195 -1.2002 -0.4175  0.1074
   76DOPC   C3110390   8.140   2.318   5.152 -0.6280 -0.1272  0.2667
   76DOPC   O3210391   8.052   2.250   5.200 -0.4810 -0.4483  0.3205
   76DOPC   C3210392   8.132   2.431   5.046  0.1406  0.3107  0.5479
   76DOPC   H2X10393   8.120   2.530   5.095 -1.1138  1.9463 -2.8091
   76DOPC   H2Y10394   8.224   2.435   4.985 -0.7536 -1.3948 -1.0060
   76DOPC   C2310395   8.228   2.042   4.795  0.9842 -0.7332 -0.4155
   76DOPC   H3R10396   8.180   2.129   4.845  1.9149  0.5118 -1.6319
   76DOPC   H3S10397   8.151   1.975   4.751 -0.9627  2.5891 -2.5859
   76DOPC   C2410398   8.281   2.103   4.669  1.1387  0.4144  0.0935
   76DOPC   H4R10399   8.347   2.192   4.678  0.8495  0.8762 -1.9271
   76DOPC   H4S10400   8.194   2.126   4.605  0.1642 -1.2836  0.7319
   76DOPC   C2510401   8.362   2.002   4.578  0.3273  0.4618 -0.4259
   76DOPC   H5R10402   8.299   1.912   4.566  0.5068 -0.0070  1.7609
   76DOPC   H5S10403   8.457   1.979   4.632  1.9288 -0.3989 -3.3784
   76DOPC   C2610404   8.395   2.060   4.439  0.2795 -0.2395  0.5747
   76DOPC   H6R10405   8.451   2.154   4.461  0.1660 -0.1571  0.5145
   76DOPC   H6S10406   8.299   2.076   4.386 -0.3251  0.4516  1.8210
   76DOPC   C2710407   8.480   1.969   4.350 -0.2988 -0.0220 -0.8705
   76DOPC   H7R10408   8.437   1.869   4.371 -0.4048  0.1961  0.0140
   76DOPC   H7S10409   0.047   1.958   4.393  1.4584 -0.3017 -4.7286
   76DOPC   C2810410   8.486   2.026   4.208  0.0402 -0.2715  0.9694
   76DOPC   H8R10411   8.379   2.012   4.179 -0.5707  1.3598  2.2553
   76DOPC   H8S10412   0.009   1.965   4.135  0.7445  0.7399  0.6561
   76DOPC   C2910413   8.535   2.167   4.191  0.6747  0.4527  0.2298
   76DOPC   H9R10414   0.094   2.181   4.245  0.0975  1.6206  0.9761
   76DOPC  C21010415   8.464   2.267   4.146  0.3968  0.5811  0.3529
   76DOPC  H10R10416   8.517   2.362   4.134  3.4030 -1.1872 -1.8721
   76DOPC  C21110417   8.326   2.266   4.080 -0.3233 -0.2767 -0.3220
   76DOPC  H11R10418   8.256   2.330   4.137  1.6697  1.7895 -0.0376
   76DOPC  H11S10419   8.291   2.162   4.065  1.3148 -0.7915 -0.8472
   76DOPC  C21210420   8.353   2.339   3.951 -0.4492 -0.6022  0.4607
   76DOPC  H12R10421   8.448   2.320   3.897 -1.1453 -2.1082 -0.2871
   76DOPC  H12S10422   8.377   2.443   3.981 -1.9786  0.1288 -0.6677
   76DOPC  C21310423   8.243   2.328   3.846 -0.5950  0.1899 -0.9461
   76DOPC  H13R10424   8.149   2.361   3.895 -0.6745 -0.7681 -0.4207
   76DOPC  H13S10425   8.242   2.225   3.804  0.9072 -0.5992  0.8020
   76DOPC  C21410426   8.266   2.431   3.727 -0.5824 -0.2324 -0.1868
   76DOPC  H14R10427   8.357   2.406   3.667 -1.2638  0.2567 -1.4593
   76DOPC  H14S10428   8.281   2.534   3.765 -2.3861  0.7390 -1.9505
   76DOPC  C21510429   8.150   2.430   3.625  0.2268  0.5820 -0.1968
   76DOPC  H15R10430   8.059   2.462   3.680 -0.1437  1.8437 -1.4897
   76DOPC  H15S10431   8.142   2.324   3.593  0.8933 -0.2424  2.1192
   76DOPC  C21610432   8.160   2.541   3.515  0.5943  0.9269  0.2195
   76DOPC  H16R10433   8.254   2.526   3.457 -0.9590 -0.6678 -2.0721
   76DOPC  H16S10434   8.167   2.640   3.565 -0.9407  0.7009  0.9214
   76DOPC  C21710435   8.035   2.528   3.417  0.0235  0.3810 -0.1015
   76DOPC  H17R10436   7.941   2.559   3.468  1.1285  2.0232  1.0279
   76DOPC  H17S10437   8.034   2.422   3.385 -2.6179  0.0484  0.8346
   76DOPC  C21810438   8.032   2.617   3.288  0.5750 -0.5382 -0.1633
   76DOPC  H18R10439   8.133   2.609   3.243  0.1125 -0.7790 -1.1817
   76DOPC  H18S10440   8.004   2.723   3.308  0.3923 -0.7584  0.7928
   76DOPC  H18T10441   7.967   2.573   3.209 -0.5906 -1.9439  1.5032
   76DOPC   C3310442   8.020   2.413   4.945  0.1377  0.3909  0.0228
   76DOPC   H3X10443   7.918   2.441   4.978 -2.3332 -1.5105 -4.9218
   76DOPC   H3Y10444   8.017   2.308   4.907  0.0546  0.6132 -0.6106
   76DOPC   C3410445   8.040   2.506   4.825  0.4611  0.4144  0.8808
   76DOPC   H4X10446   8.072   2.608   4.855  1.1838  1.2883 -2.5375
   76DOPC   H4Y10447   7.942   2.521   4.775 -0.7194 -1.5614  2.4346
   76DOPC   C3510448   8.127   2.450   4.721 -0.5090  0.0711 -0.5828
   76DOPC   H5X10449   8.098   2.345   4.700  0.9111 -0.6801  1.0696
   76DOPC   H5Y10450   8.229   2.447   4.764  0.8232  0.9176 -3.3870
   76DOPC   C3610451   8.138   2.535   4.591 -0.0891  0.2907 -0.3306
   76DOPC   H6X10452   8.046   2.535   4.528  1.6798 -1.2466 -3.0904
   76DOPC   H6Y10453   8.142   2.642   4.623 -1.5805  0.3291 -0.1658
   76DOPC   C3710454   8.267   2.503   4.497 -0.3339  0.0721  0.0189
   76DOPC   H7X10455   8.356   2.500   4.564 -0.5516  1.3849  0.3902
   76DOPC   H7Y10456   8.257   2.405   4.445  0.2569 -0.9737  1.7607
   76DOPC   C3810457   8.304   2.633   4.421  0.3211  0.0761 -0.1556
   76DOPC   H8X10458   8.320   2.708   4.501  0.9168 -0.7135  0.4857
   76DOPC   H8Y10459   8.215   2.661   4.361  0.4313  0.5478 -0.1011
   76DOPC   C3910460   8.438   2.596   4.347  0.1940 -0.5671 -0.7690
   76DOPC   H9X10461   8.456   2.492   4.316 -1.7884 -0.8593 -1.0831
   76DOPC  C31010462   0.005   2.683   4.335  0.0887  0.0336 -0.6958
   76DOPC  H10X10463   0.078   2.646   4.261 -0.8811  1.9172 -2.7184
   76DOPC  C31110464   0.003   2.830   4.364 -0.1969  0.0203 -0.0119
   76DOPC  H11X10465   0.101   2.882   4.356  0.0413 -0.1566  1.3886
   76DOPC  H11Y10466   8.509   2.845   4.471  0.9748  0.1642  0.3043
   76DOPC  C31210467   8.436   2.913   4.277  0.8272 -0.4299 -0.2364
   76DOPC  H12X10468   8.340   2.856   4.268  0.5494  0.0686 -0.4649
   76DOPC  H12Y10469   8.482   2.919   4.176 -3.2227  0.2973 -2.2602
   76DOPC  C31310470   8.405   3.053   4.326  0.6534 -0.6119 -0.4755
   76DOPC  H13X10471   8.304   3.090   4.297  0.4367  0.1603  1.1726
   76DOPC  H13Y10472   8.410   3.053   4.437  0.9879 -2.5783 -0.4702
   76DOPC  C31410473   8.501   3.174   4.300  0.4005 -0.4189  0.1863
   76DOPC  H14X10474   0.061   3.124   4.270 -0.2604 -1.0125 -1.0116
   76DOPC  H14Y10475   8.456   3.228   4.214  2.7238  1.6482  0.1646
   76DOPC  C31510476   8.532   3.261   4.414  0.4549  0.3952  0.1857
   76DOPC  H15X10477   0.054   3.199   4.487  0.4867  0.4509  0.2091
   76DOPC  H15Y10478   8.437   3.304   4.452  0.0226  0.1054 -0.5641
   76DOPC  C31610479   0.081   3.383   4.377  0.7270  0.1731  0.2549
   76DOPC  H16X10480   0.115   3.437   4.468  0.9609  2.2395 -0.9907
   76DOPC  H16Y10481   0.177   3.340   4.340  0.5660 -1.1593  1.3087
   76DOPC  C31710482   0.011   3.480   4.275 -0.6215  0.0366 -0.1764
   76DOPC  H17X10483   8.509   3.425   4.186 -1.7412  1.7617 -0.8131
   76DOPC  H17Y10484   8.460   3.535   4.318 -0.3563 -1.5579  2.6475
   76DOPC  C31810485   0.122   3.572   4.218  0.7644  0.3745 -0.4810
   76DOPC  H18X10486   0.083   3.651   4.150 -3.1398 -0.2899  0.7130
   76DOPC  H18Y10487   0.170   3.626   4.303 -0.9801 -0.0682  0.8635
   76DOPC  H18Z10488   0.198   3.506   4.171 -0.8023 -0.8155 -1.4515
   77DOPC     N10489   2.383   8.315   5.641  0.1300 -0.3197 -0.5120
   77DOPC   C1210490   2.354   8.356   5.504  1.1556 -0.2697  0.7477
   77DOPC  H12A10491   2.430   8.335   5.430 -1.1264  1.5475 -2.3574
   77DOPC  H12B10492   2.335   8.462   5.500 -2.4213 -0.8108  0.2235
   77DOPC   C1310493   2.423   8.174   5.652 -0.5028  0.6856  0.0525
   77DOPC  H13A10494   2.341   8.113   5.619 -1.8053  2.1432  0.4594
   77DOPC  H13B10495   2.512   8.150   5.596  0.1232  0.9564  0.9101
   77DOPC  H13C10496   2.444   8.154   5.756  0.0971  0.6561 -0.0693
   77DOPC   C1410497   2.267   8.346   5.733  0.3573 -0.0468  0.0500
   77DOPC  H14A10498   2.226   8.444   5.714  0.0368 -0.0188  0.8432
   77DOPC  H14B10499   2.191   8.270   5.721  0.2415 -0.2149  1.6098
   77DOPC  H14C10500   2.307   8.342   5.833 -1.0235  0.6209  0.6485
   77DOPC   C1510501   2.495   8.400   5.684  1.0664  0.5625 -0.1615
   77DOPC  H15A10502   2.529   8.392   5.786 -0.6017  1.4210  0.5029
   77DOPC  H15B10503   2.466   8.504   5.673  0.8720  0.4020 -1.2239
   77DOPC  H15C10504   2.580   8.385   5.619  0.4620  0.4635 -0.9527
   77DOPC   C1110505   2.216   8.311   5.438  0.2103 -0.2040  0.2374
   77DOPC  H11A10506   2.128   8.337   5.501  0.4043 -1.3505  1.0057
   77DOPC  H11B10507   2.202   8.385   5.356  0.9959  1.1367  1.2515
   77DOPC     P10508   2.121   8.073   5.435  0.5108  0.3652  0.3861
   77DOPC   O1310509   1.985   8.093   5.379 -0.7652  0.7800  0.4611
   77DOPC   O1410510   2.136   8.057   5.579 -0.1681  0.2307 -0.8392
   77DOPC   O1210511   2.218   8.181   5.389  0.0024 -0.0340  0.5757
   77DOPC   O1110512   2.186   7.943   5.366 -0.1260 -0.8303  0.8081
   77DOPC    C110513   2.248   7.944   5.236 -0.1920  0.2424 -0.3472
   77DOPC    HA10514   2.311   8.029   5.202  1.3668 -1.4339 -1.8917
   77DOPC    HB10515   2.166   7.953   5.162 -0.5299  1.4020  0.1283
   77DOPC    C210516   2.317   7.816   5.215  0.0542 -0.3036 -0.3464
   77DOPC    HS10517   2.396   7.809   5.292 -2.5157  0.8394  2.5923
   77DOPC   O2110518   2.371   7.815   5.082 -0.1041 -0.7548 -0.5205
   77DOPC   C2110519   2.444   7.710   5.063  0.4205 -0.8291 -0.2600
   77DOPC   O2210520   2.486   7.641   5.154  0.2477  0.4440  0.3062
   77DOPC   C2210521   2.454   7.678   4.916  0.1554  0.0388 -0.0307
   77DOPC   H2R10522   2.550   7.709   4.869 -0.3775  0.5460 -0.7995
   77DOPC   H2S10523   2.379   7.742   4.866  0.5706  0.2951 -0.3286
   77DOPC    C310524   2.218   7.692   5.230 -0.8732 -0.2975  0.4767
   77DOPC    HX10525   2.143   7.724   5.306 -1.0815 -0.1641  0.2162
   77DOPC    HY10526   2.277   7.612   5.280 -0.0905 -1.1353 -1.6604
   77DOPC   O3110527   2.155   7.654   5.100 -0.0420 -0.3959  0.3946
   77DOPC   C3110528   2.032   7.692   5.074  0.2339 -0.2221  0.8833
   77DOPC   O3210529   1.965   7.759   5.153 -0.1948 -0.1690 -0.0200
   77DOPC   C3210530   2.000   7.651   4.931  0.3285  0.6882 -0.8404
   77DOPC   H2X10531   2.092   7.638   4.870  1.1520  1.3506  0.2143
   77DOPC   H2Y10532   1.937   7.560   4.937  0.5156  0.5349 -1.2337
   77DOPC   C2310533   2.426   7.532   4.887  0.1715  0.4544 -0.2654
   77DOPC   H3R10534   2.335   7.498   4.941  1.4609 -0.7546  1.2301
   77DOPC   H3S10535   2.511   7.472   4.927  0.6888  1.2102 -0.2164
   77DOPC   C2410536   2.414   7.499   4.732  0.1901  0.0796  0.7545
   77DOPC   H4R10537   2.330   7.557   4.689 -0.2087 -0.4982  0.7452
   77DOPC   H4S10538   2.414   7.390   4.714 -0.0490  0.2076 -0.0435
   77DOPC   C2510539   2.536   7.549   4.648  0.6796  0.5141 -0.3890
   77DOPC   H5R10540   2.621   7.526   4.715  0.0693 -0.6350  0.0250
   77DOPC   H5S10541   2.537   7.660   4.640  1.1073  0.7316  2.0393
   77DOPC   C2610542   2.570   7.470   4.522  0.4248 -0.5002  0.5154
   77DOPC   H6R10543   2.578   7.362   4.543  1.5589 -0.5668 -0.1864
   77DOPC   H6S10544   2.668   7.508   4.488  0.4015 -0.1150  0.8717
   77DOPC   C2710545   2.462   7.497   4.413  0.0109  0.7799 -0.0605
   77DOPC   H7R10546   2.459   7.607   4.393 -1.7906  0.8546  0.4791
   77DOPC   H7S10547   2.360   7.480   4.452 -0.5184 -0.9645 -2.0592
   77DOPC   C2810548   2.482   7.413   4.285 -0.0020  0.8131  0.0445
   77DOPC   H8R10549   2.592   7.421   4.270  0.3694 -0.8835  1.5570
   77DOPC   H8S10550   2.457   7.479   4.199  1.0696  1.0563 -0.1033
   77DOPC   C2910551   2.435   7.268   4.281  0.1669 -0.2278 -0.4308
   77DOPC   H9R10552   2.421   7.216   4.376 -0.5376  0.4767 -0.1374
   77DOPC  C21010553   2.396   7.203   4.168 -0.4204 -0.2059  0.1789
   77DOPC  H10R10554   2.361   7.100   4.177 -0.9094  0.0306  1.0229
   77DOPC  C21110555   2.401   7.257   4.025 -0.0256  1.0173 -0.2148
   77DOPC  H11R10556   2.505   7.236   3.992 -0.1352  1.3897 -0.8242
   77DOPC  H11S10557   2.380   7.366   4.013 -0.0975  1.0261 -0.0037
   77DOPC  C21210558   2.308   7.166   3.942 -0.2160 -0.3154  0.4136
   77DOPC  H12R10559   2.318   7.061   3.977  0.2170 -0.2157  0.5918
   77DOPC  H12S10560   2.327   7.171   3.833 -1.0560  0.9606  0.3014
   77DOPC  C21310561   2.159   7.217   3.960  0.3893 -0.3349 -0.5438
   77DOPC  H13R10562   2.157   7.328   3.954 -0.5652 -0.3221 -0.0559
   77DOPC  H13S10563   2.131   7.189   4.063 -1.1088 -0.6134 -1.0092
   77DOPC  C21410564   2.061   7.153   3.861 -0.1189 -0.6697  0.7880
   77DOPC  H14R10565   2.041   7.046   3.883 -0.0904 -0.1328  3.7961
   77DOPC  H14S10566   2.102   7.155   3.758  0.0155  0.2586  0.8493
   77DOPC  C21510567   1.926   7.231   3.873 -0.2607  0.0484  0.1398
   77DOPC  H15R10568   1.934   7.340   3.855 -1.3057  0.4587  1.9099
   77DOPC  H15S10569   1.897   7.215   3.979  1.9889 -2.5051  0.4705
   77DOPC  C21610570   1.836   7.169   3.768 -0.3074 -0.3823  0.2786
   77DOPC  H16R10571   1.841   7.058   3.766 -2.5264 -0.5325 -0.3056
   77DOPC  H16S10572   1.867   7.214   3.671 -0.0149 -1.8048 -0.3044
   77DOPC  C21710573   1.686   7.204   3.778 -0.0846  0.1694  0.5614
   77DOPC  H17R10574   1.662   7.312   3.774 -1.1204 -0.0277  1.1765
   77DOPC  H17S10575   1.633   7.163   3.867 -1.1458  0.3144  0.0080
   77DOPC  C21810576   1.612   7.145   3.658 -0.6338 -0.0419  0.3213
   77DOPC  H18R10577   1.638   7.191   3.560 -0.5371 -1.2761 -0.2491
   77DOPC  H18S10578   1.505   7.160   3.682 -1.1999 -0.8476 -1.5225
   77DOPC  H18T10579   1.625   7.035   3.655 -2.4717 -0.3088  1.0859
   77DOPC   C3310580   1.924   7.758   4.853 -0.5215  0.7173  0.0556
   77DOPC   H3X10581   1.814   7.758   4.866 -0.7670 -0.5627 -1.6337
   77DOPC   H3Y10582   1.934   7.736   4.745  1.6201  0.8166  0.1945
   77DOPC   C3410583   1.987   7.901   4.874 -0.3001 -0.9126  0.2597
   77DOPC   H4X10584   2.096   7.886   4.861 -0.3684 -1.3812  0.1760
   77DOPC   H4Y10585   1.973   7.939   4.977 -0.7061  0.5860 -0.3285
   77DOPC   C3510586   1.934   8.015   4.776  0.0141  0.4115  0.4347
   77DOPC   H5X10587   1.969   8.118   4.800  0.0345  0.7825 -1.0857
   77DOPC   H5Y10588   1.824   8.019   4.791 -0.1969  2.8693 -1.2297
   77DOPC   C3610589   1.963   7.995   4.623  0.0828  0.0832 -0.3418
   77DOPC   H6X10590   2.072   8.007   4.603  0.2812  0.5821  0.9336
   77DOPC   H6Y10591   1.945   7.893   4.582  0.0040  0.3102 -0.8846
   77DOPC   C3710592   1.874   8.099   4.539 -1.0931  0.6864  0.2247
   77DOPC   H7X10593   1.769   8.063   4.537  0.1862 -3.6511 -0.3165
   77DOPC   H7Y10594   1.888   8.191   4.599  1.4059 -1.3902  3.1773
   77DOPC   C3810595   1.938   8.122   4.406  0.1290  0.3482 -0.0927
   77DOPC   H8X10596   2.049   8.125   4.411  0.1320 -0.1423  0.1725
   77DOPC   H8Y10597   1.910   8.228   4.385 -2.9485 -0.3033  0.1714
   77DOPC   C3910598   1.887   8.032   4.299  0.1353  0.9688 -0.7873
   77DOPC   H9X10599   1.913   7.930   4.330 -2.2204  0.0697 -1.5552
   77DOPC  C31010600   1.809   8.054   4.194 -0.0529  0.6212  0.9083
   77DOPC  H10X10601   1.776   7.968   4.134  0.0297  1.2127 -0.0116
   77DOPC  C31110602   1.760   8.184   4.145  0.1681 -0.4355  0.9075
   77DOPC  H11X10603   1.793   8.273   4.203  0.9077  1.0174 -1.5868
   77DOPC  H11Y10604   1.650   8.175   4.144 -0.1190  2.1311 -1.5115
   77DOPC  C31210605   1.799   8.212   3.998  0.3501 -0.2758  0.0158
   77DOPC  H12X10606   1.910   8.207   3.991  0.2475 -0.7348 -2.0948
   77DOPC  H12Y10607   1.757   8.313   3.983 -0.0366 -0.8690 -4.0345
   77DOPC  C31310608   1.746   8.122   3.888 -0.2433 -0.4303 -0.0673
   77DOPC  H13X10609   1.788   8.020   3.906  0.8933  0.5040  3.1090
   77DOPC  H13Y10610   1.636   8.115   3.873 -0.3082  2.3236 -1.3952
   77DOPC  C31410611   1.798   8.179   3.750 -0.1136 -0.3823  0.3343
   77DOPC  H14X10612   1.758   8.282   3.740  2.5236  0.8545  1.5014
   77DOPC  H14Y10613   1.905   8.195   3.773 -0.3113  0.1390  0.9187
   77DOPC  C31510614   1.784   8.081   3.638 -0.4165 -0.5152  0.6042
   77DOPC  H15X10615   1.677   8.054   3.627 -0.5374 -0.1483  0.9020
   77DOPC  H15Y10616   1.840   7.987   3.659 -0.0708 -0.5697 -0.4887
   77DOPC  C31610617   1.844   8.143   3.504 -0.0824  0.4733  0.0835
   77DOPC  H16X10618   1.780   8.229   3.475  0.9864  0.8600 -1.2700
   77DOPC  H16Y10619   1.947   8.185   3.516 -0.6219  2.3873 -1.4286
   77DOPC  C31710620   1.840   8.042   3.382  0.5314 -0.3119 -0.1522
   77DOPC  H17X10621   1.887   7.942   3.398  0.4504 -0.1861  0.9859
   77DOPC  H17Y10622   1.732   8.024   3.362  0.5918  1.1618 -1.9397
   77DOPC  C31810623   1.913   8.111   3.269 -0.1890 -0.5140 -0.6902
   77DOPC  H18X10624   1.904   8.050   3.176  0.4299 -2.0562  0.2117
   77DOPC  H18Y10625   1.865   8.207   3.241  0.4146 -0.3260 -1.0875
   77DOPC  H18Z10626   2.021   8.128   3.290 -0.6988 -1.2114  3.5103
   78DOPC     N10627   6.232   2.580   6.137  0.1667  0.5097  0.2901
   78DOPC   C1210628   6.095   2.523   6.177 -0.0952  0.0508  0.5076
   78DOPC  H12A10629   6.049   2.577   6.258  0.1619  0.0771  0.6371
   78DOPC  H12B10630   6.095   2.420   6.209 -2.3131 -0.4808 -0.9928
   78DOPC   C1310631   6.284   2.488   6.032  0.2263 -0.1604 -0.3143
   78DOPC  H13A10632   6.222   2.495   5.943 -0.2018 -1.2264 -0.1134
   78DOPC  H13B10633   6.380   2.528   6.006  0.6297  0.2283  1.6559
   78DOPC  H13C10634   6.292   2.384   6.061  1.5307  0.1944  0.6687
   78DOPC   C1410635   6.325   2.577   6.261  0.6566 -0.1066  0.3798
   78DOPC  H14A10636   6.301   2.660   6.326 -0.0711  1.5219 -1.8541
   78DOPC  H14B10637   6.311   2.478   6.301  0.0472  0.1498  0.8228
   78DOPC  H14C10638   6.430   2.596   6.241  0.9116 -2.0072 -0.2774
   78DOPC   C1510639   6.229   2.717   6.076 -0.1433  0.4119  0.1353
   78DOPC  H15A10640   6.222   2.794   6.151  2.4154  1.2329 -0.3745
   78DOPC  H15B10641   6.135   2.726   6.023  0.2304  1.2715 -0.4002
   78DOPC  H15C10642   6.320   2.735   6.020  1.4707 -0.1409  2.4410
   78DOPC   C1110643   5.989   2.531   6.067 -0.0564  0.4967  0.2208
   78DOPC  H11A10644   5.968   2.638   6.043  1.9110  0.4533 -2.1846
   78DOPC  H11B10645   6.035   2.483   5.978  0.7168  3.5262 -1.1824
   78DOPC     P10646   5.797   2.352   6.050  0.0848 -0.2951  0.0037
   78DOPC   O1310647   5.678   2.321   6.128  0.3618  0.7477 -0.0565
   78DOPC   O1410648   5.885   2.240   6.014 -0.3567  0.2697  0.1631
   78DOPC   O1210649   5.877   2.463   6.119  0.5523 -0.2451 -0.0447
   78DOPC   O1110650   5.756   2.431   5.914  0.5040 -0.1059  0.0355
   78DOPC    C110651   5.616   2.432   5.870 -0.2765 -0.1889 -0.1022
   78DOPC    HA10652   5.622   2.505   5.786  0.2046 -0.3715 -0.2276
   78DOPC    HB10653   5.550   2.474   5.950  0.1232  0.4845 -0.1122
   78DOPC    C210654   5.561   2.299   5.817 -0.4726  0.4731  0.4473
   78DOPC    HS10655   5.540   2.229   5.901  0.1972 -0.2823  0.0040
   78DOPC   O2110656   5.667   2.242   5.729  0.1660  0.0254 -0.0624
   78DOPC   C2110657   5.633   2.119   5.683  0.6412 -0.3721  0.1856
   78DOPC   O2210658   5.543   2.049   5.731 -0.1606  0.0245  0.3895
   78DOPC   C2210659   5.708   2.089   5.554  0.5329 -0.4277  0.2098
   78DOPC   H2R10660   5.782   2.011   5.581 -0.0305 -0.6824  1.0767
   78DOPC   H2S10661   5.744   2.184   5.511 -0.8015 -0.3760 -0.8806
   78DOPC    C310662   5.429   2.325   5.746 -0.0468 -0.0855  0.3531
   78DOPC    HX10663   5.344   2.359   5.809 -1.8225  1.1037 -2.4845
   78DOPC    HY10664   5.398   2.230   5.695  3.4134 -0.6023 -1.0996
   78DOPC   O3110665   5.465   2.416   5.644  0.3176  0.1078  0.0508
   78DOPC   C3110666   5.360   2.444   5.564 -0.0890 -0.4237  0.4364
   78DOPC   O3210667   5.247   2.413   5.583  0.7095 -0.6407  0.0060
   78DOPC   C3210668   5.397   2.510   5.428 -0.1818  0.3167 -0.0096
   78DOPC   H2X10669   5.309   2.487   5.366  0.6953  1.8522 -1.9273
   78DOPC   H2Y10670   5.409   2.619   5.450  2.1870  0.7996 -2.9517
   78DOPC   C2310671   5.602   2.035   5.453 -0.3247  0.1994 -0.4044
   78DOPC   H3R10672   5.505   2.090   5.454 -0.3116  0.4816 -3.7675
   78DOPC   H3S10673   5.575   1.929   5.477  0.8674  0.4106  2.1912
   78DOPC   C2410674   5.654   2.037   5.307  0.2680  0.7126  0.2820
   78DOPC   H4R10675   5.749   1.980   5.301 -0.4343 -0.5082  0.3820
   78DOPC   H4S10676   5.667   2.144   5.277  1.4851  0.5975  0.3526
   78DOPC   C2510677   5.554   1.971   5.206 -0.2931 -0.5048  0.5442
   78DOPC   H5R10678   5.452   2.014   5.194 -0.2904 -0.9037 -1.1495
   78DOPC   H5S10679   5.527   1.870   5.243  1.0933 -0.8134  0.7528
   78DOPC   C2610680   5.614   1.954   5.062 -0.1342  0.5516  0.3909
   78DOPC   H6R10681   5.534   1.906   5.002 -0.5616 -0.4950  1.7562
   78DOPC   H6S10682   5.702   1.886   5.064 -0.7763 -0.3043  0.2405
   78DOPC   C2710683   5.647   2.088   5.009 -0.3919 -0.0841  0.4846
   78DOPC   H7R10684   5.732   2.137   5.059 -0.4383 -0.6380  1.1283
   78DOPC   H7S10685   5.569   2.163   5.034  1.1268  0.6573  3.4021
   78DOPC   C2810686   5.679   2.086   4.859  0.1970  0.4755 -0.0510
   78DOPC   H8R10687   5.700   2.187   4.817 -0.6806  0.8486  0.4027
   78DOPC   H8S10688   5.583   2.062   4.808  0.5277  0.1368 -0.5288
   78DOPC   C2910689   5.801   2.007   4.824  0.3070 -0.1168  0.6281
   78DOPC   H9R10690   5.885   1.997   4.895  2.0298 -1.7187 -1.4831
   78DOPC  C21010691   5.813   1.935   4.713 -0.7112 -0.0593 -0.2724
   78DOPC  H10R10692   5.900   1.869   4.696  0.6016  1.4260  0.4515
   78DOPC  C21110693   5.717   1.927   4.602 -0.0057 -0.4958  0.4917
   78DOPC  H11R10694   5.763   1.929   4.501  0.8344  1.7452  0.8669
   78DOPC  H11S10695   5.652   2.016   4.618  1.5189  1.3260 -2.5733
   78DOPC  C21210696   5.638   1.800   4.626  0.4094  0.9194 -0.9863
   78DOPC  H12R10697   5.601   1.791   4.730  0.6985 -1.0415 -1.0133
   78DOPC  H12S10698   5.694   1.704   4.625 -1.2972 -0.1220 -2.6771
   78DOPC  C21310699   5.528   1.778   4.516 -0.2085 -0.6120 -0.3505
   78DOPC  H13R10700   5.500   1.871   4.461 -1.8216 -1.9528 -1.9341
   78DOPC  H13S10701   5.438   1.741   4.570  0.3986 -0.7909  0.5545
   78DOPC  C21410702   5.562   1.667   4.418  0.7179 -0.1730  0.2556
   78DOPC  H14R10703   5.472   1.650   4.355  0.4174  3.1928 -0.4168
   78DOPC  H14S10704   5.595   1.574   4.470  0.6695 -0.9136 -0.9972
   78DOPC  C21510705   5.684   1.706   4.338 -0.6931  0.1968  0.4009
   78DOPC  H15R10706   5.779   1.698   4.396  1.8041  0.8229 -3.3081
   78DOPC  H15S10707   5.674   1.809   4.297  1.5421 -0.2232 -1.4014
   78DOPC  C21610708   5.703   1.617   4.220 -0.0222 -0.0232  0.2967
   78DOPC  H16R10709   5.611   1.629   4.160 -1.2919  2.0466  2.4502
   78DOPC  H16S10710   5.701   1.507   4.231 -0.3913 -0.4133 -2.7822
   78DOPC  C21710711   5.841   1.630   4.151  0.7840 -0.4413  0.3617
   78DOPC  H17R10712   5.918   1.591   4.220  0.2199  1.7357  2.3652
   78DOPC  H17S10713   5.850   1.738   4.125  0.6780 -1.1656 -3.3030
   78DOPC  C21810714   5.843   1.562   4.015 -0.0972 -0.3490  0.0715
   78DOPC  H18R10715   5.856   1.451   4.013 -0.8755 -0.4505  0.2822
   78DOPC  H18S10716   5.934   1.592   3.959 -0.3498  1.0549  0.3991
   78DOPC  H18T10717   5.755   1.589   3.953  0.8679  0.3727 -1.0108
   78DOPC   C3310718   5.526   2.450   5.359 -0.1239  0.4693  0.3993
   78DOPC   H3X10719   5.497   2.343   5.350 -0.5223  0.6928 -1.4378
   78DOPC   H3Y10720   5.612   2.458   5.429  0.1904  0.8598 -0.0297
   78DOPC   C3410721   5.547   2.517   5.224 -0.0991  0.0500  0.0050
   78DOPC   H4X10722   5.560   2.626   5.243 -0.1965 -0.1730  1.4721
   78DOPC   H4Y10723   5.454   2.502   5.164 -0.3851 -0.0441  0.4640
   78DOPC   C3510724   5.662   2.455   5.146 -0.6398 -0.3849 -0.6521
   78DOPC   H5X10725   5.636   2.348   5.132  1.4471 -0.9300 -0.5871
   78DOPC   H5Y10726   5.757   2.465   5.203 -0.1163 -0.5643 -1.4768
   78DOPC   C3610727   5.681   2.513   5.006 -0.8722 -0.6944 -0.1005
   78DOPC   H6X10728   5.586   2.500   4.950 -0.9279  0.2693 -0.2512
   78DOPC   H6Y10729   5.700   2.622   5.017 -3.0639 -0.3304  0.4520
   78DOPC   C3710730   5.801   2.452   4.939 -0.0793 -0.7113  0.7656
   78DOPC   H7X10731   5.887   2.478   5.004 -0.3077 -0.8664  1.1308
   78DOPC   H7Y10732   5.799   2.341   4.937  1.5503 -0.7696  0.7337
   78DOPC   C3810733   5.812   2.490   4.789  0.0282 -0.0429 -0.3302
   78DOPC   H8X10734   5.836   2.598   4.801 -2.0148  0.4544 -0.3153
   78DOPC   H8Y10735   5.712   2.474   4.744 -0.2368 -0.5693  0.4343
   78DOPC   C3910736   5.928   2.430   4.714  0.0226 -0.6955  0.2166
   78DOPC   H9X10737   6.025   2.481   4.733 -0.0858 -1.1373  2.1649
   78DOPC  C31010738   5.922   2.348   4.605 -0.2237  0.2330  0.2183
   78DOPC  H10X10739   6.016   2.318   4.558 -0.0773 -0.5631  0.9839
   78DOPC  C31110740   5.801   2.281   4.542 -0.3105 -0.1772 -0.6087
   78DOPC  H11X10741   5.710   2.303   4.601  0.1656  0.6075 -0.1481
   78DOPC  H11Y10742   5.814   2.171   4.529  0.1466  0.1617 -3.9487
   78DOPC  C31210743   5.770   2.338   4.402 -0.2720 -0.3324 -0.4543
   78DOPC  H12X10744   5.694   2.279   4.346  0.0097 -0.8364 -0.3095
   78DOPC  H12Y10745   5.860   2.337   4.337  0.0276 -0.1388 -0.0441
   78DOPC  C31310746   5.699   2.474   4.402  0.2171  0.6179 -0.3316
   78DOPC  H13X10747   5.622   2.488   4.481  0.2639 -0.3674 -0.0970
   78DOPC  H13Y10748   5.773   2.554   4.422  1.3259  0.0218 -1.8610
   78DOPC  C31410749   5.644   2.496   4.261  0.0181 -0.0262 -0.1653
   78DOPC  H14X10750   5.721   2.456   4.192  0.9469  1.1276  0.1608
   78DOPC  H14Y10751   5.549   2.446   4.235 -0.0310 -0.0989  0.1573
   78DOPC  C31510752   5.638   2.647   4.236 -0.2958  0.0214  0.4994
   78DOPC  H15X10753   5.742   2.685   4.250 -1.0605  2.7167 -0.4545
   78DOPC  H15Y10754   5.579   2.702   4.312  0.6856 -1.2453  2.2362
   78DOPC  C31610755   5.597   2.688   4.100 -0.5155  0.4594 -0.5591
   78DOPC  H16X10756   5.643   2.628   4.019 -1.2730 -0.4636 -0.3272
   78DOPC  H16Y10757   5.487   2.668   4.099 -0.4660 -0.0586  0.9401
   78DOPC  C31710758   5.606   2.836   4.067 -0.1847  0.1778 -0.1927
   78DOPC  H17X10759   5.546   2.886   4.145 -0.1298 -1.7690  1.1820
   78DOPC  H17Y10760   5.713   2.868   4.066 -0.4222  0.9832 -0.1745
   78DOPC  C31810761   5.551   2.851   3.924 -0.5896  0.2183 -0.5532
   78DOPC  H18X10762   5.608   2.791   3.850 -1.5473 -0.8494 -0.4451
   78DOPC  H18Y10763   5.451   2.803   3.915 -0.0909 -0.8865 -0.4162
   78DOPC  H18Z10764   5.557   2.951   3.876 -0.2778  0.0875 -0.7847
   79DOPC     N10765   2.137   6.958   5.585 -0.0933  0.6801 -0.3540
   79DOPC   C1210766   2.228   7.043   5.500  0.8147  0.0513 -0.3445
   79DOPC  H12A10767   2.276   7.118   5.562 -0.7922  1.0078 -0.1911
   79DOPC  H12B10768   2.157   7.095   5.437 -0.2648 -2.4650 -1.3365
   79DOPC   C1310769   2.021   7.037   5.632  0.7277 -0.4158  0.3631
   79DOPC  H13A10770   1.958   7.053   5.546  0.0018  0.3704  1.0304
   79DOPC  H13B10771   1.960   6.984   5.704 -1.1034 -0.4617 -1.1642
   79DOPC  H13C10772   2.041   7.136   5.669 -2.6858  0.7687 -0.5925
   79DOPC   C1410773   2.217   6.896   5.706  0.3603 -0.2010  0.2097
   79DOPC  H14A10774   2.194   6.952   5.795  0.0543  0.7941 -0.4753
   79DOPC  H14B10775   2.182   6.794   5.719 -0.9063  0.3912  1.7953
   79DOPC  H14C10776   2.323   6.911   5.693  0.6425 -0.3077  2.0752
   79DOPC   C1510777   2.075   6.848   5.506 -0.7558 -0.5680 -0.0641
   79DOPC  H15A10778   2.018   6.890   5.425 -0.2420 -2.3804 -1.4303
   79DOPC  H15B10779   2.008   6.787   5.566 -0.1610 -0.4572  0.7303
   79DOPC  H15C10780   2.151   6.783   5.464 -0.5265  0.3608 -1.1292
   79DOPC   C1110781   2.341   6.990   5.406  0.0765 -0.1024  0.1029
   79DOPC  H11A10782   2.291   6.917   5.339 -1.1701  0.2591  0.6084
   79DOPC  H11B10783   2.394   7.062   5.340  1.6358 -1.4785 -0.2311
   79DOPC     P10784   2.553   7.012   5.555 -0.2231  0.3747  0.0304
   79DOPC   O1310785   2.636   6.917   5.633 -0.0582 -0.1233  0.8447
   79DOPC   O1410786   2.486   7.120   5.635  0.4492  0.2358  0.0899
   79DOPC   O1210787   2.436   6.923   5.493  0.2654  0.6597 -0.3079
   79DOPC   O1110788   2.638   7.071   5.429 -0.0051  1.0752 -0.6201
   79DOPC    C110789   2.692   6.970   5.342 -0.6776  0.0464 -0.3862
   79DOPC    HA10790   2.607   6.928   5.283 -0.7675  0.1304 -0.3154
   79DOPC    HB10791   2.731   6.882   5.397 -1.1399  1.6758  2.7677
   79DOPC    C210792   2.785   7.033   5.233  0.6568  0.0303 -0.4900
   79DOPC    HS10793   2.882   7.055   5.283  0.4420 -0.2623  0.0686
   79DOPC   O2110794   2.727   7.152   5.175  0.1110  0.2903 -0.4029
   79DOPC   C2110795   2.767   7.271   5.219 -0.0503  0.2255  0.1020
   79DOPC   O2210796   2.849   7.287   5.309 -0.3353 -0.2553 -0.1679
   79DOPC   C2210797   2.709   7.386   5.142  0.1300  0.2410  0.4195
   79DOPC   H2R10798   2.653   7.446   5.217  0.3723  2.4266 -1.0526
   79DOPC   H2S10799   2.630   7.346   5.075  1.0074 -3.3694  1.3128
   79DOPC    C310800   2.816   6.936   5.118 -0.2190 -0.4943 -0.3832
   79DOPC    HX10801   2.720   6.915   5.065 -0.0367 -2.9375  0.1035
   79DOPC    HY10802   2.849   6.835   5.154 -0.7561 -0.8081 -0.7602
   79DOPC   O3110803   2.908   6.988   5.024  0.2480 -0.0931  0.0943
   79DOPC   C3110804   3.030   6.947   5.024 -0.6411 -1.2469 -0.1898
   79DOPC   O3210805   3.086   6.886   5.109  0.0033 -0.2341 -0.4680
   79DOPC   C3210806   3.096   6.996   4.889 -0.2291 -0.1101  0.1707
   79DOPC   H2X10807   3.024   7.063   4.837  1.0412  0.6339 -0.6643
   79DOPC   H2Y10808   3.190   7.051   4.909  0.8149 -1.6251 -0.4022
   79DOPC   C2310809   2.815   7.471   5.063 -0.0425  0.6634  0.1952
   79DOPC   H3R10810   2.882   7.525   5.134  1.6972  1.0707 -1.6648
   79DOPC   H3S10811   2.755   7.548   5.011  0.5458 -0.5377 -2.4679
   79DOPC   C2410812   2.899   7.393   4.958  0.0660 -0.2065  0.3724
   79DOPC   H4R10813   2.841   7.318   4.899  1.6562 -2.1945  1.1979
   79DOPC   H4S10814   2.971   7.334   5.019 -0.4665  0.8109  2.0785
   79DOPC   C2510815   2.979   7.484   4.870  0.0405 -1.6568  0.2960
   79DOPC   H5R10816   3.021   7.573   4.921 -1.2512  1.7730 -4.0080
   79DOPC   H5S10817   2.911   7.533   4.797 -1.6052  0.7132  3.1819
   79DOPC   C2610818   3.095   7.398   4.811 -0.2110 -0.0701 -0.2199
   79DOPC   H6R10819   3.059   7.312   4.749  1.8411 -0.9393 -0.2765
   79DOPC   H6S10820   3.150   7.350   4.894  0.8515 -0.7467 -1.2884
   79DOPC   C2710821   3.192   7.480   4.728 -0.5071 -0.3192 -0.4917
   79DOPC   H7R10822   3.264   7.399   4.702 -0.2749 -0.9266  1.7452
   79DOPC   H7S10823   3.236   7.559   4.794 -0.6679  0.1215 -0.9065
   79DOPC   C2810824   3.135   7.550   4.603 -0.1499 -0.3137  0.1651
   79DOPC   H8R10825   3.222   7.589   4.546 -0.6885  2.5448  1.1497
   79DOPC   H8S10826   3.073   7.636   4.636  0.6894  0.0568  0.8292
   79DOPC   C2910827   3.046   7.449   4.523 -0.7333 -0.2999  0.1649
   79DOPC   H9R10828   2.957   7.414   4.577 -1.5010 -0.6064 -1.2499
   79DOPC  C21010829   3.070   7.393   4.404 -0.9973  0.4808 -0.1998
   79DOPC  H10R10830   2.995   7.319   4.372 -0.8385 -1.7364  3.9086
   79DOPC  C21110831   3.183   7.417   4.306 -0.2974 -0.3175  0.9535
   79DOPC  H11R10832   3.223   7.318   4.275  1.6762  0.5813  0.4639
   79DOPC  H11S10833   3.269   7.469   4.352 -1.5969  1.4962  1.4489
   79DOPC  C21210834   3.144   7.497   4.177 -0.3697  0.8459 -1.0322
   79DOPC  H12R10835   3.153   7.606   4.200 -2.3732  0.8102  0.1116
   79DOPC  H12S10836   3.037   7.476   4.157 -0.5317  1.3301 -0.7008
   79DOPC  C21310837   3.238   7.470   4.064 -0.1862  0.1451 -0.8128
   79DOPC  H13R10838   3.255   7.360   4.059  0.1035  0.2184 -1.5334
   79DOPC  H13S10839   3.333   7.522   4.089 -0.4602 -0.3521  1.4732
   79DOPC  C21410840   3.173   7.530   3.942  0.9268  0.0584 -0.0849
   79DOPC  H14R10841   3.166   7.639   3.962 -0.8056 -0.0983  0.2780
   79DOPC  H14S10842   3.069   7.496   3.926  1.0154  0.3145 -1.3677
   79DOPC  C21510843   3.248   7.529   3.813 -0.1142  0.3385  0.0038
   79DOPC  H15R10844   3.181   7.561   3.732 -0.4582  0.9620  0.5310
   79DOPC  H15S10845   3.270   7.422   3.791 -1.8709  0.0624 -0.5581
   79DOPC  C21610846   3.365   7.629   3.799  0.1484  0.4920  0.1261
   79DOPC  H16R10847   3.448   7.603   3.868 -1.7856  0.7007  2.6888
   79DOPC  H16S10848   3.316   7.726   3.822  1.1854  1.1085 -0.1967
   79DOPC  C21710849   3.404   7.654   3.651 -0.4182  0.1330 -0.5785
   79DOPC  H17R10850   3.485   7.730   3.644  0.3310 -0.6877 -1.0981
   79DOPC  H17S10851   3.320   7.696   3.593 -0.2710  1.5796  0.2098
   79DOPC  C21810852   3.455   7.533   3.572  0.0837  0.8042  0.4964
   79DOPC  H18R10853   3.379   7.452   3.570  1.5700 -0.6477 -1.0731
   79DOPC  H18S10854   3.537   7.485   3.631  1.3966  1.0014 -1.0969
   79DOPC  H18T10855   3.489   7.559   3.470  1.1538  0.0453  0.6344
   79DOPC   C3310856   3.131   6.880   4.797  0.2306  0.2014  0.4176
   79DOPC   H3X10857   3.037   6.843   4.751 -0.7218  0.3334  2.1595
   79DOPC   H3Y10858   3.169   6.800   4.863  2.4368  1.1822  0.4064
   79DOPC   C3410859   3.241   6.905   4.686 -0.4200 -0.4606 -0.9453
   79DOPC   H4X10860   3.314   6.822   4.690 -0.4023 -0.7339 -4.3503
   79DOPC   H4Y10861   3.306   6.990   4.715 -2.0039  0.5374 -0.1421
   79DOPC   C3510862   3.188   6.936   4.547  0.6939  0.5302  0.3608
   79DOPC   H5X10863   3.135   7.034   4.548 -0.3635 -0.0145 -0.3264
   79DOPC   H5Y10864   3.119   6.853   4.518  0.7965  0.0746  1.3895
   79DOPC   C3610865   3.311   6.941   4.452 -0.9492  0.2423  0.4521
   79DOPC   H6X10866   3.390   7.007   4.494  0.1111  0.0605 -1.1437
   79DOPC   H6Y10867   3.349   6.837   4.450 -0.9727  0.1671 -3.1608
   79DOPC   C3710868   3.271   6.982   4.303 -0.1807  0.5167 -0.1787
   79DOPC   H7X10869   3.223   7.082   4.304 -0.7143  0.2567  0.7128
   79DOPC   H7Y10870   3.363   6.986   4.241 -0.7733  0.6474 -1.0729
   79DOPC   C3810871   3.191   6.871   4.224 -0.7454 -0.2445  0.7421
   79DOPC   H8X10872   3.088   6.852   4.261 -1.4808  1.7910 -0.1487
   79DOPC   H8Y10873   3.253   6.779   4.232 -0.4952  0.0719  3.0765
   79DOPC   C3910874   3.166   6.930   4.084  0.0922 -0.3256  0.3597
   79DOPC   H9X10875   3.086   7.005   4.080  1.2743  0.9246 -2.5634
   79DOPC  C31010876   3.229   6.898   3.970 -0.0171  0.4640  0.3777
   79DOPC  H10X10877   3.195   6.955   3.882  1.2003 -0.0760 -0.4649
   79DOPC  C31110878   3.339   6.800   3.949  0.5784  0.1559 -1.4461
   79DOPC  H11X10879   3.301   6.703   3.911  0.3612 -0.6902  0.8061
   79DOPC  H11Y10880   3.380   6.762   4.045  1.1583 -0.4863 -1.9356
   79DOPC  C31210881   3.461   6.852   3.868  0.2196  0.2636 -1.3662
   79DOPC  H12X10882   3.474   6.951   3.915 -1.0342 -0.3293  0.3421
   79DOPC  H12Y10883   3.431   6.857   3.761 -1.7353  0.0418 -0.8705
   79DOPC  C31310884   3.574   6.746   3.882 -0.6975 -0.1147 -0.4535
   79DOPC  H13X10885   3.615   6.749   3.985 -0.9375  0.3272 -0.3722
   79DOPC  H13Y10886   3.550   6.640   3.857 -2.4677  0.4038 -1.0729
   79DOPC  C31410887   3.677   6.775   3.764  0.4660  0.3739 -0.9471
   79DOPC  H14X10888   3.709   6.880   3.776  2.7211 -0.3200 -0.4358
   79DOPC  H14Y10889   3.768   6.718   3.791  0.3682  0.9963  0.8109
   79DOPC  C31510890   3.637   6.732   3.628 -0.3529  0.3982  0.8120
   79DOPC  H15X10891   3.552   6.801   3.608 -0.4213  0.4888  1.4161
   79DOPC  H15Y10892   3.604   6.626   3.622 -1.1863  0.5290  2.5222
   79DOPC  C31610893   3.753   6.751   3.524  0.5923 -0.8143  0.0207
   79DOPC  H16X10894   3.762   6.861   3.515  0.2988 -0.5606  2.2747
   79DOPC  H16Y10895   3.846   6.705   3.565  0.2470 -1.2932  0.2793
   79DOPC  C31710896   3.730   6.677   3.394  0.9636  0.0321 -0.2628
   79DOPC  H17X10897   3.756   6.572   3.421  1.4156  0.0903 -0.4531
   79DOPC  H17Y10898   3.622   6.685   3.370  0.6002 -3.1097 -0.1607
   79DOPC  C31810899   3.806   6.729   3.276  0.2781 -0.1323  0.3276
   79DOPC  H18X10900   3.780   6.837   3.263 -1.1132 -0.5213 -0.2426
   79DOPC  H18Y10901   3.916   6.721   3.289  0.0390 -0.7503  2.2151
   79DOPC  H18Z10902   3.782   6.674   3.182  1.4030 -0.3164  0.1336
   80DOPC     N10903   8.526   3.303   5.335  0.4114 -0.5253  0.5907
   80DOPC   C1210904   8.386   3.354   5.301 -1.2205 -0.2677 -0.0759
   80DOPC  H12A10905   8.325   3.268   5.281 -2.1063  0.3602 -0.1047
   80DOPC  H12B10906   8.404   3.400   5.205  1.1484 -4.4348 -1.9157
   80DOPC   C1310907   0.057   3.246   5.213 -0.4590 -0.4016 -0.0687
   80DOPC  H13A10908   0.161   3.227   5.231 -0.3195  0.4703  0.0764
   80DOPC  H13B10909   0.007   3.159   5.173  1.1073 -0.2969 -2.4651
   80DOPC  H13C10910   0.056   3.312   5.127 -0.9528 -1.9732 -1.3163
   80DOPC   C1410911   8.520   3.193   5.436  0.0049  0.3061 -1.4089
   80DOPC  H14A10912   0.072   3.131   5.422  1.1711  1.1879  1.2976
   80DOPC  H14B10913   8.522   3.236   5.535 -0.9789  3.8093 -2.7622
   80DOPC  H14C10914   8.431   3.133   5.422 -0.0279 -0.6981  2.1259
   80DOPC   C1510915   0.083   3.416   5.385  0.1732  0.3603  1.1486
   80DOPC  H15A10916   0.102   3.492   5.311  0.6768  0.2091  1.1214
   80DOPC  H15B10917   0.180   3.378   5.411 -0.1955  0.6332  3.1263
   80DOPC  H15C10918   0.052   3.466   5.476  2.2184  1.4036  1.3275
   80DOPC   C1110919   8.308   3.443   5.399 -0.2160  0.0086 -0.0307
   80DOPC  H11A10920   8.205   3.449   5.359 -0.4354 -0.9160  0.3698
   80DOPC  H11B10921   8.310   3.394   5.499  2.3845  1.4986  0.7681
   80DOPC     P10922   8.357   3.678   5.298 -0.5257 -0.2446 -0.2397
   80DOPC   O1310923   8.497   3.730   5.298  0.3897  0.3233  0.1399
   80DOPC   O1410924   8.256   3.775   5.331 -0.0817  0.3431 -0.4563
   80DOPC   O1210925   8.365   3.573   5.418 -0.1447 -0.0913 -0.0354
   80DOPC   O1110926   8.320   3.592   5.166  0.4944 -0.0243  0.1075
   80DOPC    C110927   8.204   3.628   5.087  0.2732 -0.0376 -0.3170
   80DOPC    HA10928   8.242   3.677   4.995  1.2931 -1.0399 -0.4495
   80DOPC    HB10929   8.130   3.701   5.127 -1.1838 -1.1342 -0.9834
   80DOPC    C210930   8.116   3.496   5.053 -0.5941  0.1213 -0.0659
   80DOPC    HS10931   8.178   3.412   5.093 -1.5239 -0.7406 -0.4047
   80DOPC   O2110932   8.109   3.483   4.909  0.1298 -0.8292  0.4620
   80DOPC   C2110933   8.054   3.378   4.862  0.7575  0.3331 -0.9249
   80DOPC   O2210934   8.018   3.278   4.922 -0.4344  0.0820 -0.2440
   80DOPC   C2210935   8.033   3.407   4.712  0.2395 -0.8274  0.0622
   80DOPC   H2R10936   7.993   3.511   4.710 -0.0759 -0.9360  0.4731
   80DOPC   H2S10937   7.944   3.347   4.689 -0.7051  1.0821 -1.5537
   80DOPC    C310938   7.972   3.507   5.117 -0.7061 -0.5226  0.2895
   80DOPC    HX10939   7.975   3.522   5.227 -1.3612  0.5709  0.1708
   80DOPC    HY10940   7.930   3.405   5.103 -1.5946 -0.4795  2.3200
   80DOPC   O3110941   7.884   3.602   5.053 -0.5726 -0.2802 -0.0501
   80DOPC   C3110942   7.765   3.612   5.119 -0.6501  0.6085 -0.4453
   80DOPC   O3210943   7.733   3.550   5.220 -0.1560  0.1103  0.2467
   80DOPC   C3210944   7.678   3.719   5.064  0.2004  0.0163 -0.1726
   80DOPC   H2X10945   7.676   3.803   5.138 -0.9157 -0.5678  0.4927
   80DOPC   H2Y10946   7.730   3.762   4.976  0.3235  2.8312  1.1650
   80DOPC   C2310947   8.157   3.401   4.623  0.8731  0.4319 -0.4165
   80DOPC   H3R10948   8.224   3.315   4.643  0.8072  0.3208 -0.6694
   80DOPC   H3S10949   8.222   3.483   4.662  0.7790  0.0211  0.5994
   80DOPC   C2410950   8.126   3.421   4.470  0.2772  0.2336 -0.4744
   80DOPC   H4R10951   8.206   3.486   4.428  1.0626 -1.3460 -1.5182
   80DOPC   H4S10952   8.028   3.473   4.469 -0.5267 -1.0691  1.9400
   80DOPC   C2510953   8.118   3.290   4.400 -0.5376  0.6770 -0.4756
   80DOPC   H5R10954   8.030   3.241   4.446  0.0322 -0.0183 -0.1011
   80DOPC   H5S10955   8.203   3.224   4.428 -1.0264 -0.7123 -2.0808
   80DOPC   C2610956   8.092   3.300   4.251 -0.2575  0.5081  0.7415
   80DOPC   H6R10957   8.188   3.313   4.197 -0.3890  0.3318  0.4634
   80DOPC   H6S10958   8.032   3.390   4.224 -0.8397 -0.0873 -0.0106
   80DOPC   C2710959   8.017   3.170   4.206  0.1291  0.3595 -0.0337
   80DOPC   H7R10960   7.949   3.144   4.290 -1.5792  2.0511 -0.8214
   80DOPC   H7S10961   8.096   3.092   4.210  1.3684  1.5736 -0.0778
   80DOPC   C2810962   7.940   3.177   4.073  0.5522  0.0625  0.5735
   80DOPC   H8R10963   7.866   3.259   4.066  0.7450  0.0989 -2.0083
   80DOPC   H8S10964   7.876   3.086   4.070  0.8016 -0.1042  0.2175
   80DOPC   C2910965   8.032   3.179   3.957 -0.9724  0.1898 -0.9309
   80DOPC   H9R10966   8.126   3.133   3.992 -2.2218 -1.6479  0.1985
   80DOPC  C21010967   8.019   3.247   3.848  0.4844  0.5016  0.2705
   80DOPC  H10R10968   8.094   3.225   3.769 -0.6156 -2.9903 -0.0020
   80DOPC  C21110969   7.896   3.314   3.794 -0.0933 -0.2197  0.5412
   80DOPC  H11R10970   7.814   3.292   3.866 -1.7821 -0.1803 -1.2834
   80DOPC  H11S10971   7.858   3.267   3.701  2.0945 -0.4360 -0.2976
   80DOPC  C21210972   7.909   3.463   3.767  0.4405 -0.0261 -0.0190
   80DOPC  H12R10973   7.955   3.487   3.668  1.2065  0.4968  0.4510
   80DOPC  H12S10974   7.972   3.510   3.846 -0.4888  1.3936 -0.0792
   80DOPC  C21310975   7.766   3.540   3.772  0.4477 -0.7097 -0.0740
   80DOPC  H13R10976   7.724   3.513   3.872  0.0354 -0.2251 -0.1150
   80DOPC  H13S10977   7.699   3.475   3.712 -0.6560  1.3857 -1.2169
   80DOPC  C21410978   7.768   3.688   3.736 -0.5024 -0.4268  0.9642
   80DOPC  H14R10979   7.671   3.726   3.698  0.1506  0.4036  0.0917
   80DOPC  H14S10980   7.840   3.699   3.652 -2.0248 -0.0798 -0.3415
   80DOPC  C21510981   7.807   3.767   3.864 -0.3525 -0.4472  0.0936
   80DOPC  H15R10982   7.903   3.722   3.898 -1.4341 -1.6607  1.7187
   80DOPC  H15S10983   7.738   3.743   3.948 -0.2334  0.5567  0.4920
   80DOPC  C21610984   7.812   3.925   3.842 -0.0764 -0.6004 -0.1057
   80DOPC  H16R10985   7.830   3.976   3.939  1.2508 -0.4058 -0.4202
   80DOPC  H16S10986   7.712   3.955   3.806  0.7277  3.3068  0.4545
   80DOPC  C21710987   7.909   3.975   3.731 -0.0036  0.0425  0.7688
   80DOPC  H17R10988   7.922   4.086   3.729  1.1141 -0.0638  1.2283
   80DOPC  H17S10989   7.869   3.951   3.630  0.7341  1.7710  0.0278
   80DOPC  C21810990   8.051   3.915   3.745 -0.0230  0.1459  0.4603
   80DOPC  H18R10991   8.093   3.947   3.843 -0.9473  0.3229  0.8082
   80DOPC  H18S10992   8.131   3.943   3.672  0.9111 -0.3623  1.2592
   80DOPC  H18T10993   8.032   3.806   3.747  1.5157 -0.2113 -1.3962
   80DOPC   C3310994   7.537   3.677   5.032  1.0706 -0.9164  0.2996
   80DOPC   H3X10995   7.489   3.636   5.124 -0.4578  1.3974  0.6147
   80DOPC   H3Y10996   7.538   3.607   4.946 -0.3348  0.4410 -0.8701
   80DOPC   C3410997   7.443   3.787   4.989 -0.4392 -0.9334  0.2449
   80DOPC   H4X10998   7.397   3.840   5.074 -2.0701 -1.5777 -0.1865
   80DOPC   H4Y10999   7.352   3.748   4.936 -0.4176 -0.1070 -0.4219
   80DOPC   C3511000   7.498   3.901   4.905 -0.2226 -0.4577  0.2047
   80DOPC   H5X11001   7.551   3.851   4.821  0.8210 -0.8045  1.0415
   80DOPC   H5Y11002   7.581   3.951   4.959  0.5547 -0.4034 -1.0071
   80DOPC   C3611003   7.385   3.991   4.852 -0.4960 -0.7742  0.2714
   80DOPC   H6X11004   7.321   3.926   4.789 -1.1150 -1.6582  1.7805
   80DOPC   H6Y11005   7.319   4.043   4.925  1.5352  1.2869  0.7707
   80DOPC   C3711006   7.452   4.097   4.760  0.9743  0.0598 -0.4367
   80DOPC   H7X11007   7.504   4.163   4.832  2.1459  0.7817 -1.8785
   80DOPC   H7Y11008   7.529   4.050   4.695  1.0250 -1.0315  0.3815
   80DOPC   C3811009   7.346   4.165   4.670 -0.2957  0.3944 -0.7796
   80DOPC   H8X11010   7.278   4.201   4.750  0.0881  0.4311 -0.4677
   80DOPC   H8Y11011   7.302   4.074   4.623 -1.1210  0.3875 -0.0227
   80DOPC   C3911012   7.392   4.270   4.571  1.4489  0.2588 -0.4448
   80DOPC   H9X11013   7.449   4.352   4.618  3.8665  1.0520 -4.3008
   80DOPC  C31011014   7.378   4.273   4.437 -0.0577 -1.1321  0.4507
   80DOPC  H10X11015   7.403   4.364   4.382  2.4333 -0.8134  1.9712
   80DOPC  C31111016   7.312   4.164   4.358  0.3277 -0.8776 -0.5511
   80DOPC  H11X11017   7.260   4.216   4.274 -0.8761 -0.1087  0.6222
   80DOPC  H11Y11018   7.227   4.120   4.415  0.2340 -0.9028 -0.7072
   80DOPC  C31211019   7.405   4.049   4.317 -0.1804  0.3667  0.3442
   80DOPC  H12X11020   7.348   3.968   4.267  1.5927 -0.5431 -0.2689
   80DOPC  H12Y11021   7.445   4.002   4.409 -0.1068  1.5625  0.9478
   80DOPC  C31311022   7.518   4.086   4.220  0.3980  0.5731 -0.6442
   80DOPC  H13X11023   7.476   4.131   4.127  1.1929 -1.3639 -1.9982
   80DOPC  H13Y11024   7.572   4.166   4.275  1.1253 -1.3947  1.7009
   80DOPC  C31411025   7.621   3.970   4.192  0.0044  0.0851  0.2722
   80DOPC  H14X11026   7.556   3.888   4.157  1.4607 -1.1002  0.2553
   80DOPC  H14Y11027   7.686   3.995   4.105 -1.8089 -0.2653 -1.2494
   80DOPC  C31511028   7.696   3.927   4.311  0.3590  0.8581 -0.5161
   80DOPC  H15X11029   7.757   3.839   4.280  0.7278 -0.4518  3.3813
   80DOPC  H15Y11030   7.620   3.894   4.384  0.6197 -4.4038 -2.1948
   80DOPC  C31611031   7.795   4.034   4.374  0.2995 -0.2514  0.0985
   80DOPC  H16X11032   7.866   4.054   4.291 -0.1651 -1.7315 -0.6981
   80DOPC  H16Y11033   7.741   4.125   4.407 -0.4650 -1.0356  1.0608
   80DOPC  C31711034   7.881   3.969   4.489  0.7068 -1.2633 -0.1711
   80DOPC  H17X11035   7.803   3.962   4.568  1.0160 -0.3767  0.2345
   80DOPC  H17Y11036   7.919   3.872   4.451 -1.3821 -2.4153  0.5294
   80DOPC  C31811037   7.995   4.064   4.524 -0.2213 -0.8783  0.1946
   80DOPC  H18X11038   8.041   4.020   4.615 -1.9188 -0.8008  1.1495
   80DOPC  H18Y11039   8.077   4.072   4.450  0.6285 -0.4618  1.1610
   80DOPC  H18Z11040   7.973   4.169   4.553  1.8545 -1.0320  2.7755
   81DOPC     N11041   0.735   0.397   5.625 -0.4588 -0.5539  0.5886
   81DOPC   C1211042   0.871   0.326   5.641 -0.1502 -0.0356 -0.4301
   81DOPC  H12A11043   0.890   0.289   5.741 -2.4759 -0.6269 -0.1529
   81DOPC  H12B11044   0.947   0.396   5.611  0.7227  0.1352  1.9940
   81DOPC   C1311045   0.624   0.314   5.672 -0.0032 -0.3068 -0.7345
   81DOPC  H13A11046   0.617   0.311   5.779 -1.3826  0.6446 -0.7644
   81DOPC  H13B11047   0.531   0.365   5.650 -0.9409 -1.0577  1.2367
   81DOPC  H13C11048   0.617   0.215   5.627  2.3862 -0.6806 -0.3891
   81DOPC   C1411049   0.721   0.443   5.482 -0.6493 -0.0805  0.2294
   81DOPC  H14A11050   0.791   0.522   5.462 -0.2427  0.0906  2.1412
   81DOPC  H14B11051   0.741   0.361   5.414  0.0976  1.3131 -1.3020
   81DOPC  H14C11052   0.623   0.477   5.454  0.1802  1.3916 -1.0437
   81DOPC   C1511053   0.720   0.515   5.714 -0.4879  0.4169  0.0278
   81DOPC  H15A11054   0.618   0.551   5.711 -0.7896 -0.2497  1.4612
   81DOPC  H15B11055   0.785   0.592   5.675 -0.1685  0.3931  0.4976
   81DOPC  H15C11056   0.755   0.478   5.809  0.1993  0.3094 -0.2646
   81DOPC   C1111057   0.909   0.212   5.534 -0.5635 -0.1617 -0.3526
   81DOPC  H11A11058   0.834   0.131   5.528  0.1998 -0.9796  0.8345
   81DOPC  H11B11059   0.915   0.255   5.431  1.6179 -0.2508 -0.3104
   81DOPC     P11060   1.174   0.247   5.552  0.2789 -0.0615  0.1046
   81DOPC   O1311061   1.290   0.174   5.606  0.2036  0.3053  0.5967
   81DOPC   O1411062   1.151   0.383   5.613 -0.1173  0.0399  0.0334
   81DOPC   O1211063   1.038   0.161   5.579  0.4845 -0.0846  0.1594
   81DOPC   O1111064   1.196   0.256   5.400  0.3955  0.0862  0.2166
   81DOPC    C111065   1.156   0.147   5.318  0.6017 -1.2540  0.1412
   81DOPC    HA11066   1.048   0.122   5.330  0.5284 -1.2881 -0.5032
   81DOPC    HB11067   1.218   0.058   5.340  1.2074 -1.4966 -2.2407
   81DOPC    C211068   1.170   0.164   5.162 -0.5438 -0.4151  0.2207
   81DOPC    HS11069   1.098   0.241   5.129  0.3975 -0.6527 -2.6160
   81DOPC   O2111070   1.159   0.037   5.092  0.2154  0.1229 -0.2360
   81DOPC   C2111071   1.034   0.005   5.067 -0.4124 -0.8268 -0.0915
   81DOPC   O2211072   0.934   0.062   5.111 -0.3747 -0.2789 -0.3978
   81DOPC   C2211073   1.037   8.426   4.974  0.3018  0.8484  0.0151
   81DOPC   H2R11074   0.964   8.347   5.001  1.3718 -0.2227 -0.1831
   81DOPC   H2S11075   1.137   8.379   4.966  1.2185  2.6807  0.1030
   81DOPC    C311076   1.306   0.227   5.130 -1.0719 -0.0451  0.3281
   81DOPC    HX11077   1.389   0.161   5.166 -1.2325 -1.0525 -1.0436
   81DOPC    HY11078   1.312   0.322   5.187  1.9647 -1.2667  2.3176
   81DOPC   O3111079   1.309   0.254   4.988 -0.3215  0.4151  0.0381
   81DOPC   C3111080   1.347   0.156   4.901  0.3058 -0.1811  0.0627
   81DOPC   O3211081   1.385   0.045   4.932  0.2346 -0.3614  0.1372
   81DOPC   C3211082   1.334   0.215   4.763  0.0192  0.3292 -0.2484
   81DOPC   H2X11083   1.228   0.212   4.728  0.3501 -1.4946 -1.2126
   81DOPC   H2Y11084   1.365   0.321   4.775  1.2385 -0.2366  2.2189
   81DOPC   C2311085   1.006   8.464   4.825 -0.2020 -0.2726 -0.0296
   81DOPC   H3R11086   1.079   0.009   4.802 -0.1139  0.2803  1.9789
   81DOPC   H3S11087   0.898   8.488   4.813  0.4546  3.0789 -0.3045
   81DOPC   C2411088   1.047   8.338   4.744  0.0129 -0.4595  0.7093
   81DOPC   H4R11089   1.007   8.245   4.790 -1.0314  0.0850  0.9247
   81DOPC   H4S11090   1.156   8.317   4.746  0.3986  1.1382 -0.7164
   81DOPC   C2511091   1.000   8.355   4.599 -0.0034  0.9617  0.7181
   81DOPC   H5R11092   1.078   8.392   4.528 -1.3645  0.6405 -1.0060
   81DOPC   H5S11093   0.919   8.428   4.584 -1.3055 -1.0009 -3.3222
   81DOPC   C2611094   0.936   8.230   4.530  0.4113 -0.3847  0.2313
   81DOPC   H6R11095   0.869   8.185   4.606 -3.0280  2.0216 -1.0736
   81DOPC   H6S11096   1.018   8.156   4.527  0.6860 -0.0666 -0.2459
   81DOPC   C2711097   0.878   8.257   4.381 -0.1936  0.3011  0.1678
   81DOPC   H7R11098   0.810   8.344   4.374  1.6928  2.3583  3.9883
   81DOPC   H7S11099   0.822   8.164   4.359  1.6333 -1.3575  2.0333
   81DOPC   C2811100   0.996   8.259   4.277 -0.5014 -0.0044 -0.2076
   81DOPC   H8R11101   1.058   8.167   4.283  2.0590  1.5918 -0.6235
   81DOPC   H8S11102   1.057   8.350   4.294 -2.5627  1.4406 -0.1470
   81DOPC   C2911103   0.945   8.278   4.140  0.3017 -0.1479 -0.1296
   81DOPC   H9R11104   0.972   8.197   4.071  0.8299 -0.0378 -0.0570
   81DOPC  C21011105   0.875   8.374   4.074  0.0152 -0.6691  0.0905
   81DOPC  H10R11106   0.860   8.363   3.966  2.8631 -1.0479 -0.3399
   81DOPC  C21111107   0.811   8.498   4.126 -0.0639 -0.0545 -0.3383
   81DOPC  H11R11108   0.879   0.030   4.182 -1.1869  1.2889 -0.5217
   81DOPC  H11S11109   0.738   8.456   4.199  2.2056  0.2820  2.2498
   81DOPC  C21211110   0.744   0.051   4.022  0.1234 -0.5539  0.0385
   81DOPC  H12R11111   0.697   0.135   4.077 -1.9119 -2.4916  1.4218
   81DOPC  H12S11112   0.664   8.534   3.965  1.4717 -2.8269  0.1168
   81DOPC  C21311113   0.843   0.112   3.914  0.6584 -0.2353 -0.0141
   81DOPC  H13R11114   0.897   0.027   3.868 -0.6420 -1.5223  0.7596
   81DOPC  H13S11115   0.921   0.175   3.960  0.3758  1.9724 -2.3255
   81DOPC  C21411116   0.774   0.198   3.807  0.1778 -0.6536 -0.7613
   81DOPC  H14R11117   0.725   0.279   3.864  0.1288 -1.1695 -0.0613
   81DOPC  H14S11118   0.679   0.153   3.770 -0.9289  1.4354 -0.5598
   81DOPC  C21511119   0.873   0.242   3.692  0.0286  0.9553 -0.2083
   81DOPC  H15R11120   0.964   0.285   3.739  1.2973 -0.7271 -1.0420
   81DOPC  H15S11121   0.819   0.322   3.637  0.2843  2.3614  1.4630
   81DOPC  C21611122   0.910   0.136   3.594  0.2409 -0.6473 -0.4175
   81DOPC  H16R11123   0.819   0.100   3.542  0.1334  0.1288 -0.7804
   81DOPC  H16S11124   0.965   0.048   3.635 -0.4115 -1.0195 -0.3201
   81DOPC  C21711125   0.994   0.190   3.478 -0.0172  0.3950  0.9892
   81DOPC  H17R11126   1.086   0.246   3.507  2.3477 -2.4615 -0.4960
   81DOPC  H17S11127   0.934   0.259   3.415  0.6770 -2.5389 -3.2629
   81DOPC  C21811128   1.040   0.084   3.380 -0.6605 -0.5432 -0.2183
   81DOPC  H18R11129   1.091   0.123   3.289 -0.7665  0.6939  0.2334
   81DOPC  H18S11130   0.948   0.033   3.346 -1.2704  1.2326 -1.3469
   81DOPC  H18T11131   1.091   0.002   3.435 -0.3601 -1.2315 -1.4781
   81DOPC   C3311132   1.427   0.145   4.660  0.0091  0.5914 -0.0098
   81DOPC   H3X11133   1.380   0.178   4.564 -0.8272  0.6671  0.4166
   81DOPC   H3Y11134   1.415   0.035   4.664  0.9486  0.3507 -2.2230
   81DOPC   C3411135   1.577   0.176   4.663 -0.5884  0.4118 -0.2250
   81DOPC   H4X11136   1.595   0.285   4.677 -0.2013  0.1760  1.3113
   81DOPC   H4Y11137   1.625   0.155   4.566  1.2809  0.6786  0.5941
   81DOPC   C3511138   1.654   0.102   4.778  0.4379 -0.5592  0.4242
   81DOPC   H5X11139   1.613   8.534   4.789  0.6492 -1.1135 -2.8819
   81DOPC   H5Y11140   1.630   0.158   4.871  0.9533 -0.0784  0.2750
   81DOPC   C3611141   1.801   0.076   4.751 -0.4280  0.4243  0.2481
   81DOPC   H6X11142   1.819   0.028   4.653  0.5677 -0.7458  0.9788
   81DOPC   H6Y11143   1.852   0.175   4.757  0.3892 -0.0455  1.2614
   81DOPC   C3711144   1.874   8.533   4.859  0.4153 -0.7748 -0.1637
   81DOPC   H7X11145   1.854   0.059   4.950 -3.2412  0.2173 -1.4476
   81DOPC   H7Y11146   1.822   8.436   4.875 -0.2390 -0.1723  1.6106
   81DOPC   C3811147   2.026   8.526   4.846  0.3365 -0.3499 -0.3162
   81DOPC   H8X11148   2.069   8.508   4.947 -0.5529 -1.4577 -0.1122
   81DOPC   H8Y11149   2.050   0.095   4.815 -2.3013 -0.0511 -1.6142
   81DOPC   C3911150   2.069   8.421   4.751  0.3206 -0.1485 -0.1784
   81DOPC   H9X11151   2.050   8.315   4.774 -0.1393 -0.1697 -0.6432
   81DOPC  C31011152   2.139   8.441   4.641 -0.5385 -0.0020 -0.1031
   81DOPC  H10X11153   2.151   8.351   4.580 -3.4108 -1.6374  1.5011
   81DOPC  C31111154   2.175   0.042   4.593 -0.4323 -0.8486  0.1753
   81DOPC  H11X11155   2.276   0.069   4.633  0.0571 -1.5958 -0.5356
   81DOPC  H11Y11156   2.103   0.118   4.631  0.3449 -0.0554  0.0992
   81DOPC  C31211157   2.192   0.043   4.443 -0.0240  0.3206 -0.3112
   81DOPC  H12X11158   2.193   0.144   4.397  2.0540  0.3847 -0.2463
   81DOPC  H12Y11159   2.111   8.514   4.403  1.2045 -1.3556 -0.2373
   81DOPC  C31311160   2.324   8.505   4.399  0.1149  0.5226  1.1130
   81DOPC  H13X11161   2.418   0.023   4.425  0.6331 -0.1051  0.5817
   81DOPC  H13Y11162   2.334   8.406   4.450 -0.3404 -1.4465 -2.2972
   81DOPC  C31411163   2.334   8.495   4.243  0.1518  0.1881  0.2158
   81DOPC  H14X11164   2.330   0.058   4.190  0.3393  2.3265  3.8584
   81DOPC  H14Y11165   2.438   8.463   4.223  0.0715  0.6997 -1.1913
   81DOPC  C31511166   2.240   8.388   4.184 -0.7523 -0.5945  0.0023
   81DOPC  H15X11167   2.137   8.428   4.189 -0.4037  0.2051  1.5255
   81DOPC  H15Y11168   2.256   8.294   4.240 -0.5118 -0.8580 -0.4976
   81DOPC  C31611169   2.269   8.352   4.034 -0.0493  0.2356 -0.8870
   81DOPC  H16X11170   2.361   8.294   4.016 -0.0480  0.7107 -2.5357
   81DOPC  H16Y11171   2.183   8.293   3.996 -1.3824  1.0482  0.7086
   81DOPC  C31711172   2.260   8.473   3.946 -1.0275 -0.0257  0.1855
   81DOPC  H17X11173   2.155   8.507   3.954 -1.0607 -0.1481  0.2789
   81DOPC  H17Y11174   2.335   0.009   3.986 -2.0198  0.2296  1.6521
   81DOPC  C31811175   2.295   8.444   3.797  0.6931 -0.4960  0.0738
   81DOPC  H18X11176   2.220   8.378   3.749  1.6301 -0.3183 -1.7105
   81DOPC  H18Y11177   2.291   8.532   3.728  0.0669 -0.0683  0.6467
   81DOPC  H18Z11178   2.391   8.389   3.785  1.4928  0.5087  1.5258
   82DOPC     N11179   2.787   6.153   6.020  0.0356 -0.3850 -0.3750
   82DOPC   C1211180   2.698   6.161   5.904  0.4386 -0.4101  0.0190
   82DOPC  H12A11181   2.599   6.138   5.940  0.5593 -0.4317  0.3436
   82DOPC  H12B11182   2.710   6.077   5.836  0.2925 -0.1052 -0.3895
   82DOPC   C1311183   2.752   6.020   6.093 -0.9646 -0.3906  0.1819
   82DOPC  H13A11184   2.785   5.932   6.040  0.1278  0.1575 -0.0933
   82DOPC  H13B11185   2.804   6.013   6.187  3.5839  0.8240 -1.9624
   82DOPC  H13C11186   2.645   6.021   6.107 -0.7267  1.2011  2.3560
   82DOPC   C1411187   2.748   6.270   6.106  0.3734  0.3948 -0.1487
   82DOPC  H14A11188   2.640   6.273   6.113  0.3678  0.4947 -0.2707
   82DOPC  H14B11189   2.796   6.265   6.202  0.6128 -1.3049 -0.3373
   82DOPC  H14C11190   2.773   6.365   6.061 -2.4396  1.1604 -0.2729
   82DOPC   C1511191   2.933   6.161   5.981  0.0090  0.2936 -0.3400
   82DOPC  H15A11192   2.961   6.076   5.920  0.9554 -0.0381  0.5176
   82DOPC  H15B11193   2.992   6.154   6.071 -0.9093  0.5150  0.2919
   82DOPC  H15C11194   2.956   6.250   5.925  2.4845 -0.3008 -0.3777
   82DOPC   C1111195   2.702   6.282   5.807  0.3232 -0.1233 -0.6896
   82DOPC  H11A11196   2.630   6.263   5.725 -0.4197 -1.3218  0.2127
   82DOPC  H11B11197   2.663   6.371   5.860 -2.1927 -0.7249 -1.4194
   82DOPC     P11198   2.857   6.414   5.645 -0.6425 -0.1137  0.0696
   82DOPC   O1311199   3.006   6.403   5.617  0.1023 -0.6335 -0.1269
   82DOPC   O1411200   2.806   6.542   5.689  0.0271 -0.1275  0.1968
   82DOPC   O1211201   2.829   6.304   5.753 -0.1986  0.4183 -0.3957
   82DOPC   O1111202   2.773   6.375   5.515 -0.3028  0.7512  0.5580
   82DOPC    C111203   2.829   6.280   5.428  0.2229  0.2571 -0.0892
   82DOPC    HA11204   2.757   6.198   5.404  1.1225 -0.1699 -1.4815
   82DOPC    HB11205   2.911   6.224   5.478 -1.8107 -0.8047  2.2597
   82DOPC    C211206   2.870   6.333   5.292 -0.4036 -0.1285  0.2358
   82DOPC    HS11207   2.953   6.405   5.310  0.6635 -0.9279 -1.2373
   82DOPC   O2111208   2.753   6.385   5.232  1.4810  0.2562 -0.4845
   82DOPC   C2111209   2.764   6.492   5.158 -0.4469 -0.4378 -0.5210
   82DOPC   O2211210   2.868   6.560   5.141  0.2407 -0.3053 -0.2057
   82DOPC   C2211211   2.630   6.509   5.086 -0.1906  0.1823 -0.5039
   82DOPC   H2R11212   2.579   6.588   5.146  1.2518  1.1569 -0.5188
   82DOPC   H2S11213   2.573   6.414   5.080 -0.0279  0.0962 -0.6738
   82DOPC    C311214   2.935   6.229   5.197 -0.2324  0.2251  0.2824
   82DOPC    HX11215   2.858   6.154   5.166  0.3427 -0.7363  1.1266
   82DOPC    HY11216   3.012   6.178   5.259 -0.3557  1.6319  1.6588
   82DOPC   O3111217   3.005   6.299   5.092  0.2045  0.2792  0.3023
   82DOPC   C3111218   2.959   6.286   4.972  0.3764  0.6564  0.3786
   82DOPC   O3211219   2.852   6.243   4.946 -0.0641  0.1631  0.0144
   82DOPC   C3211220   3.058   6.365   4.870  0.2281 -0.3399 -0.3804
   82DOPC   H2X11221   3.130   6.420   4.934  0.0812  1.5776 -1.7825
   82DOPC   H2Y11222   3.110   6.287   4.810  0.4435 -0.8183  0.4099
   82DOPC   C2311223   2.640   6.557   4.937  0.1737 -0.2811  0.1296
   82DOPC   H3R11224   2.690   6.485   4.868 -1.9439 -0.2482 -1.5519
   82DOPC   H3S11225   2.693   6.654   4.945  1.0568 -0.6668 -0.7880
   82DOPC   C2411226   2.499   6.580   4.870 -0.7117 -0.4702  0.1949
   82DOPC   H4R11227   2.471   6.683   4.902  0.0593 -0.2086  0.0694
   82DOPC   H4S11228   2.422   6.505   4.897  0.5008 -0.9360  2.7482
   82DOPC   C2511229   2.516   6.600   4.718 -0.3337  0.6537  0.2504
   82DOPC   H5R11230   2.531   6.508   4.658 -1.8613  0.6188 -0.1134
   82DOPC   H5S11231   2.609   6.658   4.699  0.4081 -0.9493 -1.2586
   82DOPC   C2611232   2.395   6.659   4.648 -0.4207 -0.1859  0.8440
   82DOPC   H6R11233   2.374   6.754   4.703  0.7154  0.9820 -0.6646
   82DOPC   H6S11234   2.307   6.595   4.670  0.5654 -1.6537  0.6797
   82DOPC   C2711235   2.410   6.705   4.504 -0.3369  0.3074  0.6739
   82DOPC   H7R11236   2.410   6.607   4.451 -4.2797 -0.0219  0.9462
   82DOPC   H7S11237   2.509   6.748   4.479 -0.7365 -0.0449 -1.8120
   82DOPC   C2811238   2.294   6.795   4.462  0.3783 -0.1740 -0.5820
   82DOPC   H8R11239   2.290   6.884   4.529  0.4872 -1.9129  1.8353
   82DOPC   H8S11240   2.204   6.735   4.486 -0.9690  1.6139 -0.8730
   82DOPC   C2911241   2.284   6.839   4.318 -0.3687  0.4901  0.0324
   82DOPC   H9R11242   2.383   6.818   4.274  0.5024 -1.3968  2.6471
   82DOPC  C21011243   2.182   6.886   4.240  0.2847 -0.0047  0.2479
   82DOPC  H10R11244   2.188   6.921   4.136  0.2918  0.4677  0.4075
   82DOPC  C21111245   2.041   6.894   4.290  0.1968  0.0192  0.4441
   82DOPC  H11R11246   2.013   6.844   4.385  2.2625 -0.1624  1.0024
   82DOPC  H11S11247   1.971   6.845   4.219 -0.9110  3.1931 -0.8817
   82DOPC  C21211248   1.999   7.043   4.298 -0.4993  0.2345 -0.4429
   82DOPC  H12R11249   2.022   7.090   4.200  1.7414  0.2377  0.0338
   82DOPC  H12S11250   2.055   7.104   4.372  0.9850 -1.7681  0.1877
   82DOPC  C21311251   1.847   7.066   4.322  0.6286  0.0015 -0.4505
   82DOPC  H13R11252   1.833   7.018   4.421 -1.0313  0.6484 -0.3339
   82DOPC  H13S11253   1.786   7.014   4.245 -1.1517  0.7936  0.3551
   82DOPC  C21411254   1.806   7.214   4.320 -0.2954  0.4954 -0.3427
   82DOPC  H14R11255   1.826   7.258   4.220  1.3368 -2.9679 -1.7003
   82DOPC  H14S11256   1.877   7.259   4.393 -0.0248 -0.4475 -0.0169
   82DOPC  C21511257   1.659   7.247   4.369  0.5973 -0.2910 -0.1139
   82DOPC  H15R11258   1.664   7.350   4.410  0.9115 -0.0320 -0.7826
   82DOPC  H15S11259   1.636   7.178   4.453 -0.9629 -3.7878 -3.1433
   82DOPC  C21611260   1.557   7.217   4.257 -0.1985  0.3170 -0.4973
   82DOPC  H16R11261   1.581   7.110   4.237  0.4293  0.0968  1.2815
   82DOPC  H16S11262   1.575   7.271   4.162  0.0408 -0.1976 -0.7539
   82DOPC  C21711263   1.418   7.229   4.310  0.0179 -0.2146 -0.3369
   82DOPC  H17R11264   1.408   7.166   4.400 -3.1189  0.0285 -0.4041
   82DOPC  H17S11265   1.332   7.190   4.251 -1.1923 -0.6105  1.5794
   82DOPC  C21811266   1.383   7.377   4.348 -0.5032 -0.4124  1.1004
   82DOPC  H18R11267   1.454   7.409   4.428  2.0112 -1.0246 -0.7620
   82DOPC  H18S11268   1.279   7.388   4.383 -0.7624 -1.4217  0.6960
   82DOPC  H18T11269   1.407   7.438   4.259  0.3153 -1.5009  0.5403
   82DOPC   C3311270   2.981   6.469   4.776  0.2612  0.4778 -0.5592
   82DOPC   H3X11271   2.943   6.540   4.853  2.5016  1.3198 -0.1524
   82DOPC   H3Y11272   2.908   6.402   4.726  2.5952 -2.8383  0.1057
   82DOPC   C3411273   3.071   6.546   4.679  0.4652 -0.1071 -0.8508
   82DOPC   H4X11274   3.136   6.603   4.749 -0.1315  0.6872 -0.9341
   82DOPC   H4Y11275   3.009   6.622   4.627  0.3550  1.4938  1.4917
   82DOPC   C3511276   3.156   6.446   4.599 -0.2884 -0.3224  0.3534
   82DOPC   H5X11277   3.092   6.367   4.554 -1.0224  0.3060  0.2594
   82DOPC   H5Y11278   3.236   6.408   4.665 -1.0908 -0.7075  1.1248
   82DOPC   C3611279   3.231   6.514   4.480 -0.6021 -0.0088 -0.0579
   82DOPC   H6X11280   3.173   6.595   4.431  1.0304  1.3909  0.2121
   82DOPC   H6Y11281   3.323   6.566   4.517 -0.0169 -1.6748  0.9287
   82DOPC   C3711282   3.266   6.413   4.372  0.0624 -0.2936 -0.6562
   82DOPC   H7X11283   3.345   6.337   4.390  0.4118  0.3901  0.8537
   82DOPC   H7Y11284   3.167   6.369   4.346  1.1489 -1.6642 -2.7559
   82DOPC   C3811285   3.307   6.480   4.232 -0.2188 -0.0750 -0.2747
   82DOPC   H8X11286   3.227   6.544   4.189  1.0352 -0.2847 -3.1610
   82DOPC   H8Y11287   3.310   6.402   4.153 -0.1101 -0.5407  0.1780
   82DOPC   C3911288   3.437   6.559   4.223 -0.1943 -0.2560 -0.6703
   82DOPC   H9X11289   3.418   6.665   4.243 -1.6886 -1.1106  3.4660
   82DOPC  C31011290   3.562   6.519   4.208 -0.7365 -0.1870  0.3207
   82DOPC  H10X11291   3.634   6.601   4.226 -2.0790  1.3038 -0.8548
   82DOPC  C31111292   3.608   6.376   4.199  0.6716  0.2452  0.2243
   82DOPC  H11X11293   3.525   6.304   4.212  1.7023 -0.9002  0.6865
   82DOPC  H11Y11294   3.687   6.366   4.277 -1.4706  0.4068  2.5553
   82DOPC  C31211295   3.672   6.339   4.065 -0.5899  0.3959 -0.4347
   82DOPC  H12X11296   3.721   6.243   4.089 -0.9421  0.2123 -0.4403
   82DOPC  H12Y11297   3.750   6.415   4.047  0.4761 -0.6983 -0.5605
   82DOPC  C31311298   3.582   6.324   3.944 -0.3941  0.1266 -0.5808
   82DOPC  H13X11299   3.489   6.269   3.972  0.6214 -0.9627  0.8315
   82DOPC  H13Y11300   3.556   6.421   3.898  1.1844  0.3920 -0.9521
   82DOPC  C31411301   3.639   6.237   3.833  0.2296 -0.2087  0.8222
   82DOPC  H14X11302   3.697   6.153   3.878  1.5483  1.1816  1.8297
   82DOPC  H14Y11303   3.574   6.211   3.747  0.8251 -1.5692  0.7598
   82DOPC  C31511304   3.765   6.295   3.761  0.5549 -0.2028 -0.0561
   82DOPC  H15X11305   3.819   6.356   3.837 -2.1361  0.0706  1.8215
   82DOPC  H15Y11306   3.725   6.368   3.688  1.1414  0.9341  0.7365
   82DOPC  C31611307   3.840   6.188   3.686 -0.7311 -0.2728 -0.7925
   82DOPC  H16X11308   3.837   6.088   3.734 -0.0680 -0.2050 -0.6119
   82DOPC  H16Y11309   3.790   6.167   3.589 -0.4894  1.6785 -1.3819
   82DOPC  C31711310   3.989   6.215   3.665 -0.0436 -1.0741 -0.4710
   82DOPC  H17X11311   3.987   6.309   3.607 -2.8962 -1.1688 -0.6437
   82DOPC  H17Y11312   4.025   6.241   3.767  0.7746 -0.6537 -0.8598
   82DOPC  C31811313   4.060   6.099   3.596 -0.4348 -0.0887 -0.0929
   82DOPC  H18X11314   4.164   6.096   3.635 -0.1652 -1.1181 -0.8544
   82DOPC  H18Y11315   4.016   5.997   3.605 -0.1980 -0.7373 -4.2787
   82DOPC  H18Z11316   4.063   6.112   3.486 -1.1056 -2.3291 -0.4331
   83DOPC     N11317   6.679   1.991   5.615 -0.0862 -0.9039  1.0042
   83DOPC   C1211318   6.714   1.966   5.467  1.0806  0.1609  0.3132
   83DOPC  H12A11319   6.622   1.924   5.428  2.0349  0.1294 -2.0052
   83DOPC  H12B11320   6.793   1.894   5.457  1.0910  0.0854  0.8755
   83DOPC   C1311321   6.651   1.859   5.676 -0.1537  0.4010  0.0880
   83DOPC  H13A11322   6.580   1.805   5.615 -0.0107  0.3910 -0.0716
   83DOPC  H13B11323   6.743   1.803   5.691  1.5071  2.5901 -1.3224
   83DOPC  H13C11324   6.605   1.880   5.771  0.4623 -0.8317  0.6841
   83DOPC   C1411325   6.556   2.070   5.629 -0.5537  0.7943 -0.0536
   83DOPC  H14A11326   6.470   2.028   5.578  1.0266  1.0327 -3.0998
   83DOPC  H14B11327   6.532   2.091   5.733  2.2464 -0.5350  0.9468
   83DOPC  H14C11328   6.562   2.156   5.564 -2.5477 -0.0053 -1.4039
   83DOPC   C1511329   6.792   2.068   5.679  0.4023 -0.7026  0.4612
   83DOPC  H15A11330   6.790   2.164   5.630 -2.0845 -0.6166  0.6061
   83DOPC  H15B11331   6.890   2.026   5.667  1.6700  2.5520 -1.7926
   83DOPC  H15C11332   6.772   2.068   5.785  0.6960  1.2215  0.5488
   83DOPC   C1111333   6.749   2.092   5.389 -0.4083  0.2514  0.5920
   83DOPC  H11A11334   6.708   2.067   5.289  0.6007  0.9084  0.0029
   83DOPC  H11B11335   6.705   2.183   5.434 -0.4515  0.2383  0.5765
   83DOPC     P11336   6.984   1.989   5.321 -0.1192  0.1108  0.4909
   83DOPC   O1311337   6.966   1.859   5.390 -1.3980 -0.2505 -0.1136
   83DOPC   O1411338   7.117   2.042   5.297 -0.0671 -0.4840 -0.4666
   83DOPC   O1211339   6.890   2.099   5.385  0.0749 -0.0236  0.2940
   83DOPC   O1111340   6.908   1.985   5.178  0.1412 -0.3720 -0.2681
   83DOPC    C111341   6.937   2.094   5.086 -0.1168 -0.1251 -0.6050
   83DOPC    HA11342   7.047   2.099   5.071 -0.1929  2.3258 -0.6361
   83DOPC    HB11343   6.920   2.190   5.139  0.2312 -0.1667 -0.4151
   83DOPC    C211344   6.875   2.092   4.946 -0.1251  0.9054  0.2581
   83DOPC    HS11345   6.924   2.168   4.882  0.7256 -0.8938 -1.3120
   83DOPC   O2111346   6.733   2.104   4.947 -0.1146 -0.0122  0.3360
   83DOPC   C2111347   6.701   2.234   4.940  0.3450 -0.6525 -0.2952
   83DOPC   O2211348   6.778   2.329   4.935  0.2809  0.6914  0.2929
   83DOPC   C2211349   6.549   2.248   4.948  0.6835  0.3520 -0.4010
   83DOPC   H2R11350   6.528   2.297   5.046 -0.2886  1.8459 -1.3094
   83DOPC   H2S11351   6.508   2.145   4.950 -2.3169  1.4356  2.0136
   83DOPC    C311352   6.919   1.969   4.866 -0.0892 -0.5019  0.5196
   83DOPC    HX11353   6.892   1.876   4.920  0.0447 -2.0821 -1.9791
   83DOPC    HY11354   7.028   1.969   4.847 -0.4056  0.4198 -1.5794
   83DOPC   O3111355   6.851   1.953   4.736 -0.1223 -0.7233  0.4680
   83DOPC   C3111356   6.891   2.032   4.636  0.6428 -0.7493 -0.3813
   83DOPC   O3211357   6.976   2.125   4.647  0.1727  0.4047  0.7562
   83DOPC   C3211358   6.796   2.001   4.515  0.1356 -0.7202  0.1850
   83DOPC   H2X11359   6.706   1.943   4.545 -0.9792  0.5177 -0.6540
   83DOPC   H2Y11360   6.769   2.102   4.479  1.6493  0.3609  1.8825
   83DOPC   C2311361   6.484   2.334   4.833  0.1275 -0.2417 -1.2474
   83DOPC   H3R11362   6.496   2.442   4.857  0.3931 -0.8859  2.0839
   83DOPC   H3S11363   6.376   2.312   4.838  0.1708 -0.2407  1.1935
   83DOPC   C2411364   6.528   2.294   4.695  0.1820 -0.3358 -0.5239
   83DOPC   H4R11365   6.635   2.270   4.709 -0.6692 -3.0901  2.2447
   83DOPC   H4S11366   6.512   2.384   4.632 -0.3919 -0.7530 -0.9903
   83DOPC   C2511367   6.463   2.164   4.646  0.1938  0.3479 -0.0165
   83DOPC   H5R11368   6.471   2.088   4.726  1.7036  1.8830  1.3673
   83DOPC   H5S11369   6.515   2.107   4.566 -1.0434  0.0250 -0.6122
   83DOPC   C2611370   6.311   2.172   4.614  1.0827  0.2465  0.5427
   83DOPC   H6R11371   6.299   2.233   4.521  1.7102 -2.9171 -1.7720
   83DOPC   H6S11372   6.255   2.197   4.706  1.7775 -1.5709  1.5125
   83DOPC   C2711373   6.275   2.030   4.562  0.4501  0.0337 -0.0366
   83DOPC   H7R11374   6.299   1.957   4.642 -3.5822  2.2151  3.5637
   83DOPC   H7S11375   6.331   2.004   4.470 -0.6678  0.9890 -1.0159
   83DOPC   C2811376   6.121   2.011   4.534 -0.5566 -0.2177 -0.3280
   83DOPC   H8R11377   6.088   2.097   4.471 -0.0795 -1.0643 -1.7989
   83DOPC   H8S11378   6.063   1.998   4.628  1.0855 -0.3365  0.7020
   83DOPC   C2911379   6.095   1.885   4.457  1.4749  0.2534  0.0357
   83DOPC   H9R11380   6.128   1.790   4.502 -1.2472 -0.5901  0.4100
   83DOPC  C21011381   6.017   1.879   4.343 -0.8500 -0.3213  0.8576
   83DOPC  H10R11382   6.035   1.790   4.281 -0.0781  0.1635  0.3713
   83DOPC  C21111383   5.955   1.996   4.272  0.3323  0.0404 -0.6014
   83DOPC  H11R11384   5.949   2.087   4.336  0.3940  1.1833 -2.1726
   83DOPC  H11S11385   5.850   1.974   4.244 -0.5443  1.8779  1.0565
   83DOPC  C21211386   6.037   2.038   4.149  0.5924 -0.6693 -0.2422
   83DOPC  H12R11387   6.131   2.093   4.172 -0.5071  2.3226 -2.2623
   83DOPC  H12S11388   5.967   2.114   4.107  0.8652 -1.1144 -1.5497
   83DOPC  C21311389   6.060   1.937   4.036  0.0574  0.0611 -0.7106
   83DOPC  H13R11390   5.972   1.869   4.034 -0.0662  0.1800  0.2062
   83DOPC  H13S11391   6.146   1.870   4.059 -0.7144 -1.2172 -1.3995
   83DOPC  C21411392   6.080   2.002   3.899  0.3974 -0.5355  0.3016
   83DOPC  H14R11393   6.141   1.926   3.844  1.2218 -1.2002  2.0529
   83DOPC  H14S11394   6.146   2.091   3.902  1.5135 -1.2424 -1.5340
   83DOPC  C21511395   5.950   2.038   3.830 -0.0874 -0.1744  0.9974
   83DOPC  H15R11396   5.875   2.093   3.891 -0.4419 -0.6014  0.9555
   83DOPC  H15S11397   5.892   1.948   3.801 -1.2422  0.7946  0.1715
   83DOPC  C21611398   5.967   2.126   3.700 -0.8265 -0.0019  0.0713
   83DOPC  H16R11399   6.031   2.068   3.630  0.4503  2.1387 -0.6358
   83DOPC  H16S11400   6.028   2.216   3.722 -0.3338 -0.6161  1.2675
   83DOPC  C21711401   5.833   2.167   3.649 -0.1346  0.6635  0.2951
   83DOPC  H17R11402   5.807   2.259   3.704 -0.0553  0.8141  0.0838
   83DOPC  H17S11403   5.763   2.081   3.661 -1.1261  1.5239  0.8058
   83DOPC  C21811404   5.842   2.184   3.497  0.2045  0.6563  0.1039
   83DOPC  H18R11405   5.740   2.186   3.454  0.1889  0.9106  0.1510
   83DOPC  H18S11406   5.892   2.093   3.456  0.6424  0.1464  1.7016
   83DOPC  H18T11407   5.894   2.276   3.462  1.3167  0.1127  0.2644
   83DOPC   C3311408   6.866   1.931   4.395 -0.0597 -0.5820 -0.1103
   83DOPC   H3X11409   6.868   1.822   4.413  0.9387 -0.3726  1.2170
   83DOPC   H3Y11410   6.965   1.983   4.390 -0.9185  1.0260 -1.3017
   83DOPC   C3411411   6.786   1.957   4.263 -0.1589 -0.1672 -0.0819
   83DOPC   H4X11412   6.755   2.062   4.243  0.5592  0.3439  1.3203
   83DOPC   H4Y11413   6.699   1.889   4.272  0.3897 -0.7295  1.3945
   83DOPC   C3511414   6.855   1.905   4.132 -0.3074 -0.4601  0.2343
   83DOPC   H5X11415   6.786   1.907   4.045  0.3998 -0.1749 -0.3302
   83DOPC   H5Y11416   6.892   1.802   4.147 -0.3162 -0.2707  1.7051
   83DOPC   C3611417   6.969   1.994   4.086  0.0013  0.4692 -0.6114
   83DOPC   H6X11418   6.924   2.089   4.050 -1.5019 -0.1437 -0.4464
   83DOPC   H6Y11419   7.038   2.022   4.168  2.9699 -2.1943 -1.9975
   83DOPC   C3711420   7.056   1.924   3.981 -0.1298  0.6798 -0.2575
   83DOPC   H7X11421   7.111   1.844   4.036  1.7466  1.3460 -1.0906
   83DOPC   H7Y11422   6.994   1.872   3.905  1.1604  0.2696 -1.0704
   83DOPC   C3811423   7.166   1.999   3.904  0.1237  0.3956  0.8339
   83DOPC   H8X11424   7.209   2.077   3.971  1.7382 -1.6418  2.3103
   83DOPC   H8Y11425   7.115   2.051   3.820  1.5352  0.1139 -0.2417
   83DOPC   C3911426   7.285   1.915   3.856 -0.3197  0.0773 -0.4002
   83DOPC   H9X11427   7.333   1.853   3.933  0.0405 -0.9301 -1.4098
   83DOPC  C31011428   7.328   1.907   3.737  0.1063 -1.0059  0.2863
   83DOPC  H10X11429   7.425   1.856   3.726 -0.3463 -2.7791  3.5009
   83DOPC  C31111430   7.282   1.976   3.603 -0.5253  0.6148  0.2631
   83DOPC  H11X11431   7.208   2.057   3.620 -1.5624 -0.4026  0.7190
   83DOPC  H11Y11432   7.225   1.903   3.542  0.9055 -0.1022 -0.2830
   83DOPC  C31211433   7.408   2.034   3.522 -0.1609  0.2493  0.0389
   83DOPC  H12X11434   7.490   1.960   3.515  1.2234  1.7587 -0.4971
   83DOPC  H12Y11435   7.444   2.124   3.578 -2.4389  1.0122  0.3823
   83DOPC  C31311436   7.380   2.076   3.377  0.7472 -0.3601 -0.5934
   83DOPC  H13X11437   7.485   2.074   3.340  1.8112 -5.1868  1.7887
   83DOPC  H13Y11438   7.331   1.994   3.319  1.6065  0.0955 -2.0213
   83DOPC  C31411439   7.302   2.204   3.351 -0.3813 -0.8828 -0.1515
   83DOPC  H14X11440   7.269   2.217   3.246  0.8444 -0.5673 -0.5173
   83DOPC  H14Y11441   7.212   2.205   3.417  1.2450 -0.6513  2.1999
   83DOPC  C31511442   7.375   2.340   3.362 -0.5439 -0.7889 -0.3961
   83DOPC  H15X11443   7.434   2.351   3.456  0.6249  0.4391 -1.2264
   83DOPC  H15Y11444   7.310   2.427   3.339  1.9568  0.9767 -1.2580
   83DOPC  C31611445   7.489   2.353   3.249 -0.6646  0.2896 -0.1162
   83DOPC  H16X11446   7.557   2.270   3.279  0.2501  1.6213  1.7279
   83DOPC  H16Y11447   7.457   2.324   3.147  2.4673  1.1070 -1.4487
   83DOPC  C31711448   7.560   2.487   3.253 -0.2962 -0.3214 -0.0960
   83DOPC  H17X11449   7.474   2.545   3.215 -3.4746 -2.8485  2.6232
   83DOPC  H17Y11450   7.588   2.531   3.351  2.1228  0.7875 -1.2006
   83DOPC  C31811451   7.681   2.504   3.167  0.1052  0.0316 -0.5107
   83DOPC  H18X11452   7.694   2.609   3.135  0.6174 -0.2437 -1.2510
   83DOPC  H18Y11453   7.681   2.445   3.072 -1.0489  0.5601 -0.8596
   83DOPC  H18Z11454   7.775   2.475   3.219  0.8193  0.2863 -1.6139
   84DOPC     N11455   6.585   1.045   5.753 -0.9933 -0.3747 -0.1780
   84DOPC   C1211456   6.678   1.120   5.660  0.0721  0.3023 -0.3743
   84DOPC  H12A11457   6.717   1.198   5.724  2.4383 -0.2584 -1.0432
   84DOPC  H12B11458   6.620   1.153   5.574  0.5903 -0.4939 -1.0470
   84DOPC   C1311459   6.522   0.932   5.685  0.2113 -0.1844  0.3874
   84DOPC  H13A11460   6.463   0.973   5.605 -1.3084 -1.4354  0.8201
   84DOPC  H13B11461   6.595   0.864   5.642 -1.3363 -1.5115 -0.2144
   84DOPC  H13C11462   6.455   0.872   5.745 -1.1768  2.0200  1.1395
   84DOPC   C1411463   6.481   1.148   5.792 -0.4785 -0.0252 -0.2660
   84DOPC  H14A11464   6.433   1.204   5.713  0.7219  0.9859 -0.3113
   84DOPC  H14B11465   6.400   1.098   5.841  0.6082  0.9936  2.8252
   84DOPC  H14C11466   6.506   1.219   5.870 -1.6071 -0.4823  0.5296
   84DOPC   C1511467   6.665   1.001   5.869  0.4352 -0.8575  0.4752
   84DOPC  H15A11468   6.746   0.933   5.846 -0.0639 -0.8483 -1.5413
   84DOPC  H15B11469   6.595   0.963   5.942 -0.4655  0.1770  0.1763
   84DOPC  H15C11470   6.723   1.081   5.913 -1.1675 -0.3640  1.8278
   84DOPC   C1111471   6.806   1.043   5.602  0.1140 -0.3566  0.5105
   84DOPC  H11A11472   6.874   1.110   5.545  2.1602 -2.4246  0.3731
   84DOPC  H11B11473   6.861   0.996   5.686  2.0159  0.4609 -0.2084
   84DOPC     P11474   6.779   0.943   5.369  0.0007  0.3324  0.0964
   84DOPC   O1311475   6.726   0.823   5.307  0.4745 -0.3626  0.0862
   84DOPC   O1411476   6.924   0.968   5.346 -0.0909 -0.2849 -0.2134
   84DOPC   O1211477   6.754   0.933   5.516 -0.5588  0.5420 -0.3877
   84DOPC   O1111478   6.702   1.073   5.324  0.3238 -0.3188 -0.3061
   84DOPC    C111479   6.563   1.094   5.334  0.3004  0.2934 -0.0909
   84DOPC    HA11480   6.543   1.187   5.391  1.4863  0.2603  0.4086
   84DOPC    HB11481   6.508   1.016   5.392 -2.2741  0.5690 -1.9660
   84DOPC    C211482   6.502   1.104   5.190  0.2075  0.4551  0.5532
   84DOPC    HS11483   6.524   1.007   5.142 -0.2208  0.0846  1.1058
   84DOPC   O2111484   6.553   1.217   5.110  0.3871  0.4458  0.2428
   84DOPC   C2111485   6.666   1.186   5.038 -0.3525  1.2003  0.1332
   84DOPC   O2211486   6.719   1.079   5.035  0.0572  1.0704  0.5642
   84DOPC   C2211487   6.713   1.302   4.957 -0.3304  0.3245 -0.3225
   84DOPC   H2R11488   6.777   1.266   4.874  0.8369  0.2794  0.5773
   84DOPC   H2S11489   6.768   1.368   5.027 -2.9180  1.7142  0.5465
   84DOPC    C311490   6.350   1.111   5.188  0.4499  0.0158 -0.3642
   84DOPC    HX11491   6.307   1.191   5.251  0.5115 -0.9574  0.9626
   84DOPC    HY11492   6.329   1.015   5.241  0.9463 -0.5534 -1.1642
   84DOPC   O3111493   6.300   1.100   5.051  0.5077  0.3981 -0.0089
   84DOPC   C3111494   6.210   1.197   5.024 -0.1905  0.3402 -0.2198
   84DOPC   O3211495   6.194   1.301   5.091  0.1366  0.0730  0.2645
   84DOPC   C3211496   6.136   1.170   4.891 -0.3822 -0.1001  0.1605
   84DOPC   H2X11497   6.136   1.060   4.870  0.6033  0.3423 -2.4553
   84DOPC   H2Y11498   6.035   1.213   4.908  0.9013  2.1424  2.8215
   84DOPC   C2311499   6.595   1.385   4.902  0.4993 -1.6451 -0.8442
   84DOPC   H3R11500   6.490   1.350   4.911 -0.6737  1.0349 -2.6142
   84DOPC   H3S11501   6.622   1.391   4.794  2.7764 -0.3760 -0.2637
   84DOPC   C2411502   6.608   1.528   4.951  0.2035 -0.2986 -0.3237
   84DOPC   H4R11503   6.709   1.568   4.927  0.1415 -0.8471 -1.5252
   84DOPC   H4S11504   6.607   1.536   5.062  1.3991  0.3908 -0.3427
   84DOPC   C2511505   6.491   1.617   4.913 -0.4666 -0.0171 -0.0642
   84DOPC   H5R11506   6.509   1.719   4.954  0.7941 -0.2832  0.0881
   84DOPC   H5S11507   6.396   1.582   4.957 -0.6516  0.1567 -0.3198
   84DOPC   C2611508   6.472   1.627   4.761 -0.6308 -0.2183  0.3923
   84DOPC   H6R11509   6.378   1.685   4.753 -1.5208 -1.7497 -0.6196
   84DOPC   H6S11510   6.456   1.529   4.712  0.9616 -0.3671  0.0955
   84DOPC   C2711511   6.587   1.701   4.693  0.4575 -0.4505  0.1505
   84DOPC   H7R11512   6.687   1.666   4.724  0.3431 -1.7867 -0.9156
   84DOPC   H7S11513   6.581   1.808   4.725 -0.2096 -0.2245 -0.6868
   84DOPC   C2811514   6.575   1.697   4.540 -0.2324 -0.3195 -0.3023
   84DOPC   H8R11515   6.651   1.761   4.489 -1.7561 -0.7286 -3.2955
   84DOPC   H8S11516   6.472   1.731   4.515  0.1899  0.6992 -0.7157
   84DOPC   C2911517   6.609   1.557   4.493 -0.3267  0.3092  0.3527
   84DOPC   H9R11518   6.706   1.519   4.530 -1.4492 -3.8805 -0.5482
   84DOPC  C21011519   6.552   1.475   4.405  0.0917 -0.5690 -0.5576
   84DOPC  H10R11520   6.616   1.388   4.382  2.7992  0.4007  2.5370
   84DOPC  C21111521   6.419   1.493   4.340  0.3818 -0.3392  0.3030
   84DOPC  H11R11522   6.367   1.576   4.393 -1.2126 -1.1209  0.0276
   84DOPC  H11S11523   6.352   1.405   4.350  1.4219 -1.2339 -0.4184
   84DOPC  C21211524   6.425   1.521   4.187  0.0674 -0.0756 -0.2609
   84DOPC  H12R11525   6.495   1.448   4.140 -0.1351  0.9546 -2.2926
   84DOPC  H12S11526   6.468   1.622   4.175  2.1255 -0.7377  1.0265
   84DOPC  C21311527   6.284   1.527   4.116 -0.7420  0.6484  0.5058
   84DOPC  H13R11528   6.208   1.594   4.162 -0.6474  1.8233 -0.9553
   84DOPC  H13S11529   6.247   1.424   4.133  1.6779 -0.4478 -0.3834
   84DOPC  C21411530   6.298   1.551   3.964 -0.6358 -0.1313 -0.1409
   84DOPC  H14R11531   6.198   1.538   3.918 -0.6263  0.6666 -0.4025
   84DOPC  H14S11532   6.366   1.474   3.920 -0.9690 -0.6541  0.2428
   84DOPC  C21511533   6.345   1.686   3.914  0.2906 -0.1944 -0.6035
   84DOPC  H15R11534   6.448   1.715   3.944 -0.1782 -0.2576  1.1968
   84DOPC  H15S11535   6.280   1.760   3.966  0.6682 -0.2926  0.0226
   84DOPC  C21611536   6.344   1.702   3.764 -0.5445  0.6607  0.3901
   84DOPC  H16R11537   6.396   1.797   3.739 -0.0783  0.1523 -0.6283
   84DOPC  H16S11538   6.236   1.702   3.735 -0.6261 -0.2558  0.6520
   84DOPC  C21711539   6.432   1.607   3.674 -0.0200  0.2152 -0.2756
   84DOPC  H17R11540   6.418   1.640   3.569 -1.7492  1.6233  0.3532
   84DOPC  H17S11541   6.386   1.507   3.689 -2.9694  1.7056  1.4171
   84DOPC  C21811542   6.574   1.609   3.722  0.9477 -0.3264  0.3517
   84DOPC  H18R11543   6.577   1.576   3.828 -0.5817 -1.2599  0.1301
   84DOPC  H18S11544   6.621   1.709   3.710 -2.5638  1.5783  1.0562
   84DOPC  H18T11545   6.637   1.538   3.664  1.0497 -0.1331  0.2222
   84DOPC   C3311546   6.211   1.238   4.776 -1.1264  0.1420  0.2178
   84DOPC   H3X11547   6.240   1.341   4.804 -0.7424 -0.6043  2.8031
   84DOPC   H3Y11548   6.135   1.249   4.695 -1.9887  2.8662  1.2918
   84DOPC   C3411549   6.326   1.150   4.714 -0.4321  0.8002  0.7328
   84DOPC   H4X11550   6.273   1.061   4.675 -0.8609  1.5775 -0.5137
   84DOPC   H4Y11551   6.393   1.114   4.795 -1.5851 -0.0873  1.3183
   84DOPC   C3511552   6.404   1.216   4.601  0.6883 -0.0712 -0.3154
   84DOPC   H5X11553   6.458   1.300   4.649  0.5971 -0.6701  0.9003
   84DOPC   H5Y11554   6.339   1.253   4.519 -2.0957 -2.6949  0.5049
   84DOPC   C3611555   6.515   1.136   4.534  0.2174 -0.6626  0.5029
   84DOPC   H6X11556   6.469   1.035   4.522  0.7588 -0.8730  0.1597
   84DOPC   H6Y11557   6.531   1.186   4.437  0.8176 -3.3877 -0.9151
   84DOPC   C3711558   6.641   1.126   4.621  0.5699 -0.7056 -0.0290
   84DOPC   H7X11559   6.692   1.225   4.624  1.1509 -0.9799 -0.5728
   84DOPC   H7Y11560   6.612   1.097   4.725  1.5339 -0.5491  0.2951
   84DOPC   C3811561   6.745   1.028   4.574  0.8241  0.2536  0.4347
   84DOPC   H8X11562   6.836   1.031   4.639  1.3379  1.6097 -0.2920
   84DOPC   H8Y11563   6.780   1.059   4.473  0.3274 -1.2377 -0.2220
   84DOPC   C3911564   6.705   0.882   4.565  0.2658 -0.5274  0.2793
   84DOPC   H9X11565   6.676   0.841   4.663  0.8850 -1.0376  0.2536
   84DOPC  C31011566   6.688   0.803   4.461 -0.2046  0.0425  0.6592
   84DOPC  H10X11567   6.661   0.698   4.477  1.7961 -0.5065  0.7887
   84DOPC  C31111568   6.732   0.854   4.320 -1.0385  0.2394 -0.5051
   84DOPC  H11X11569   6.839   0.884   4.311 -0.2436 -1.8868  0.9814
   84DOPC  H11Y11570   6.669   0.939   4.287 -0.4895  0.9168  0.1715
   84DOPC  C31211571   6.701   0.745   4.211  0.5369  0.4042 -0.2895
   84DOPC  H12X11572   6.713   0.793   4.111  0.0941 -0.6075 -0.8332
   84DOPC  H12Y11573   6.594   0.717   4.220  1.4489 -3.0650  1.4813
   84DOPC  C31311574   6.791   0.621   4.219 -0.4932  0.4528  0.1352
   84DOPC  H13X11575   6.770   0.549   4.301  2.1385  0.5325  0.9501
   84DOPC  H13Y11576   6.765   0.561   4.128  1.7379  1.8642 -1.5465
   84DOPC  C31411577   6.940   0.645   4.190  0.5420 -0.2811 -0.1454
   84DOPC  H14X11578   6.986   0.687   4.282 -2.3529  0.6219  1.0132
   84DOPC  H14Y11579   6.994   0.548   4.185 -0.8470 -1.1060  0.3096
   84DOPC  C31511580   6.965   0.739   4.067  0.2923 -0.5178 -0.2551
   84DOPC  H15X11581   6.926   0.836   4.105 -0.6619 -1.8059  2.2810
   84DOPC  H15Y11582   6.899   0.697   3.988 -1.1044  0.4468  0.3538
   84DOPC  C31611583   7.110   0.762   4.031 -0.0142 -0.7879  0.3210
   84DOPC  H16X11584   7.151   0.790   4.130  0.6033 -1.2347  0.2026
   84DOPC  H16Y11585   7.165   0.671   3.996 -0.5629 -0.7680 -0.6410
   84DOPC  C31711586   7.136   0.875   3.920  0.3216 -0.3308  0.0470
   84DOPC  H17X11587   7.234   0.850   3.874  0.2894 -0.0071 -0.1989
   84DOPC  H17Y11588   7.063   0.874   3.837  0.1970  1.0822  0.1144
   84DOPC  C31811589   7.143   1.017   3.981  0.2350  1.2932 -0.6525
   84DOPC  H18X11590   7.170   1.090   3.902  0.5996 -0.6630 -2.4327
   84DOPC  H18Y11591   7.047   1.060   4.017  1.4876  3.0472  0.8123
   84DOPC  H18Z11592   7.213   1.026   4.067  0.1961  1.6979 -0.6638
   85DOPC     N11593   7.291   1.678   5.420  0.5753 -0.6350  0.0731
   85DOPC   C1211594   7.217   1.729   5.292  0.3027  0.2936  0.3690
   85DOPC  H12A11595   7.245   1.833   5.279  0.7042  0.2321  0.7316
   85DOPC  H12B11596   7.111   1.724   5.310  0.3092 -1.7029  0.0886
   85DOPC   C1311597   7.444   1.676   5.411  0.3751  0.0509 -0.3245
   85DOPC  H13A11598   7.478   1.779   5.406 -0.5433  0.2980 -2.7358
   85DOPC  H13B11599   7.484   1.635   5.502 -0.9213  0.9769  0.7110
   85DOPC  H13C11600   7.476   1.611   5.331  0.6919  0.2227 -0.3380
   85DOPC   C1411601   7.231   1.549   5.452 -0.0711  0.0192  0.2229
   85DOPC  H14A11602   7.258   1.475   5.378  1.3328 -0.4743  1.1984
   85DOPC  H14B11603   7.272   1.518   5.547 -0.2312 -1.2238 -0.0972
   85DOPC  H14C11604   7.123   1.549   5.450 -0.1170 -2.1707 -1.9073
   85DOPC   C1511605   7.253   1.766   5.540  0.4148  0.3775  0.4889
   85DOPC  H15A11606   7.149   1.751   5.565 -0.1255  1.2887 -1.0513
   85DOPC  H15B11607   7.273   1.868   5.514  0.9623  0.2711  0.4894
   85DOPC  H15C11608   7.316   1.740   5.624 -0.6843  2.0216  1.8928
   85DOPC   C1111609   7.242   1.655   5.161  0.1521  0.1829  0.2717
   85DOPC  H11A11610   7.198   1.709   5.075 -0.4748 -0.6476  0.0567
   85DOPC  H11B11611   7.351   1.648   5.144  0.2057 -1.0052  0.9815
   85DOPC     P11612   7.045   1.489   5.139  0.5641 -0.4533 -0.1650
   85DOPC   O1311613   6.960   1.593   5.214  0.2058 -0.5169  0.7067
   85DOPC   O1411614   7.022   1.348   5.174 -0.1939  1.1244  0.2107
   85DOPC   O1211615   7.194   1.520   5.164 -0.2147  0.4702 -0.2321
   85DOPC   O1111616   7.029   1.507   4.986 -0.0318  0.0137  0.5285
   85DOPC    C111617   7.137   1.478   4.898  0.2406 -0.2937  0.2141
   85DOPC    HA11618   7.175   1.375   4.914 -1.0702 -0.4518  2.8665
   85DOPC    HB11619   7.222   1.547   4.917 -0.6173  0.1184  3.2360
   85DOPC    C211620   7.096   1.500   4.751  0.0914 -0.2981  0.5166
   85DOPC    HS11621   7.160   1.435   4.688 -0.9851  0.4617 -1.4388
   85DOPC   O2111622   7.114   1.644   4.708  0.8717 -0.0836 -0.7484
   85DOPC   C2111623   7.235   1.666   4.662 -0.2171  0.2389 -0.5350
   85DOPC   O2211624   7.325   1.579   4.673  0.1247 -0.0790  0.7699
   85DOPC   C2211625   7.247   1.805   4.606  0.3279 -0.4435  0.5257
   85DOPC   H2R11626   7.240   1.877   4.690 -2.3202  1.1808 -0.9581
   85DOPC   H2S11627   7.161   1.829   4.540 -0.6828 -1.6855  1.3276
   85DOPC    C311628   6.949   1.466   4.724  0.1068  0.6128 -0.3639
   85DOPC    HX11629   6.883   1.542   4.770  1.2305  0.6068  1.3805
   85DOPC    HY11630   6.932   1.367   4.773 -1.5105  1.3923  0.7313
   85DOPC   O3111631   6.916   1.467   4.581  0.4779  0.1393  0.0933
   85DOPC   C3111632   6.961   1.362   4.506  0.6172  0.2922 -0.0074
   85DOPC   O3211633   7.002   1.260   4.557  0.0122 -0.7501  0.6788
   85DOPC   C3211634   6.958   1.405   4.356 -0.0926 -0.9405 -0.3433
   85DOPC   H2X11635   6.857   1.380   4.318 -0.9133  1.6641 -0.0704
   85DOPC   H2Y11636   6.956   1.516   4.365 -0.8976 -1.0172  0.5785
   85DOPC   C2311637   7.385   1.830   4.541  0.1210  0.2407  0.5876
   85DOPC   H3R11638   7.399   1.772   4.448  0.3080 -0.4736  1.0585
   85DOPC   H3S11639   7.466   1.799   4.610 -0.6125  2.1664  2.4491
   85DOPC   C2411640   7.406   1.984   4.505 -0.0214  1.3607 -0.5451
   85DOPC   H4R11641   7.508   1.987   4.461  0.0985 -2.3221 -0.8025
   85DOPC   H4S11642   7.392   2.049   4.594  1.0539  1.5398 -0.4823
   85DOPC   C2511643   7.310   2.031   4.402  0.0310  0.5886 -0.3595
   85DOPC   H5R11644   7.209   2.035   4.447  1.0164  0.5721  2.0223
   85DOPC   H5S11645   7.308   1.959   4.317  3.5070  1.8062 -1.6534
   85DOPC   C2611646   7.350   2.165   4.346  0.2762 -0.1732  0.3360
   85DOPC   H6R11647   7.449   2.157   4.296 -0.3075 -0.6576 -0.7703
   85DOPC   H6S11648   7.353   2.237   4.431 -1.0440 -1.2187  1.3005
   85DOPC   C2711649   7.255   2.222   4.233 -0.2235 -0.1757 -0.0762
   85DOPC   H7R11650   7.154   2.233   4.279 -0.1541 -4.3530  1.5341
   85DOPC   H7S11651   7.244   2.151   4.148 -1.1712  0.2179 -0.2874
   85DOPC   C2811652   7.298   2.369   4.192  0.0490  0.1002  0.2774
   85DOPC   H8R11653   7.288   2.442   4.275 -1.1429  1.1767 -0.7765
   85DOPC   H8S11654   7.215   2.400   4.125  0.9666  0.4567 -0.7272
   85DOPC   C2911655   7.436   2.365   4.120  0.1103  1.0009 -0.0329
   85DOPC   H9R11656   7.527   2.379   4.181 -0.1410 -0.6438  0.7492
   85DOPC  C21011657   7.453   2.339   3.989 -0.5725  0.7787  0.1658
   85DOPC  H10R11658   7.556   2.309   3.966 -0.7300  1.1087 -0.9834
   85DOPC  C21111659   7.349   2.311   3.884 -0.4549  0.0934  0.0348
   85DOPC  H11R11660   7.243   2.318   3.917  0.1284  1.1896  1.8084
   85DOPC  H11S11661   7.359   2.210   3.838  0.6907  0.3925 -0.4014
   85DOPC  C21211662   7.353   2.405   3.761 -0.2910  0.6135  0.5261
   85DOPC  H12R11663   7.275   2.377   3.688  0.4218 -0.9438  0.3088
   85DOPC  H12S11664   7.448   2.390   3.706  0.3216 -0.6251  1.8393
   85DOPC  C21311665   7.343   2.557   3.794 -0.0857 -0.0858  0.8667
   85DOPC  H13R11666   7.412   2.581   3.878  0.8780  2.0444 -0.4362
   85DOPC  H13S11667   7.238   2.585   3.816 -0.3703 -0.6172  0.2409
   85DOPC  C21411668   7.370   2.652   3.684 -0.2023  0.7607  0.4166
   85DOPC  H14R11669   7.307   2.625   3.596  1.7693 -2.1667 -0.2495
   85DOPC  H14S11670   7.476   2.637   3.654 -0.9678 -0.0623 -2.1463
   85DOPC  C21511671   7.336   2.799   3.713 -0.3798 -0.5692 -0.2818
   85DOPC  H15R11672   7.241   2.818   3.768  1.5993  2.9736  2.3610
   85DOPC  H15S11673   7.318   2.847   3.614 -1.7827 -0.4335  0.0162
   85DOPC  C21611674   7.438   2.876   3.793 -0.1822  0.2386  0.0736
   85DOPC  H16R11675   7.536   2.868   3.741 -0.0275  1.8538  0.0716
   85DOPC  H16S11676   7.455   2.843   3.898  0.1939 -1.5120 -0.4955
   85DOPC  C21711677   7.399   3.027   3.787  0.3470  0.7204 -0.3053
   85DOPC  H17R11678   7.293   3.039   3.819  1.3208  2.0747  2.7929
   85DOPC  H17S11679   7.403   3.061   3.681  0.1545 -2.4349 -1.4470
   85DOPC  C21811680   7.483   3.108   3.885 -0.2908 -0.3995  0.5555
   85DOPC  H18R11681   7.457   3.216   3.880 -1.7970 -0.7955 -1.3952
   85DOPC  H18S11682   7.592   3.098   3.867  0.0485  2.3594  0.5651
   85DOPC  H18T11683   7.463   3.077   3.990 -1.7990  0.8237  0.6674
   85DOPC   C3311684   7.066   1.354   4.262 -0.1919  0.2250  0.3531
   85DOPC   H3X11685   7.060   1.401   4.161  0.5368  1.6496  0.9481
   85DOPC   H3Y11686   7.054   1.245   4.247 -0.7097  0.4481 -0.9880
   85DOPC   C3411687   7.216   1.377   4.313  0.1299 -0.4203 -0.7296
   85DOPC   H4X11688   7.223   1.327   4.411 -0.8090 -0.2163 -0.5496
   85DOPC   H4Y11689   7.224   1.485   4.340  0.3885 -0.5633 -0.2309
   85DOPC   C3511690   7.321   1.322   4.212 -0.4966 -0.0476 -0.0841
   85DOPC   H5X11691   7.311   1.373   4.115  1.2104  0.6682  0.0803
   85DOPC   H5Y11692   7.316   1.212   4.193  0.4154  0.0216 -0.7806
   85DOPC   C3611693   7.465   1.358   4.249  0.4702  0.5855  0.0117
   85DOPC   H6X11694   7.469   1.312   4.350 -2.3762 -1.8450 -0.8353
   85DOPC   H6Y11695   7.535   1.308   4.179  1.7422  1.7360  0.4127
   85DOPC   C3711696   7.505   1.506   4.269 -0.2391 -0.3452  0.6133
   85DOPC   H7X11697   7.442   1.547   4.351 -1.4093 -0.2616 -0.2947
   85DOPC   H7Y11698   7.615   1.503   4.280  0.0563 -2.2555 -1.8545
   85DOPC   C3811699   7.474   1.596   4.142 -1.3964 -0.2073  0.0064
   85DOPC   H8X11700   7.363   1.592   4.132 -1.7206  1.7242  2.0428
   85DOPC   H8Y11701   7.530   1.547   4.060  0.2684 -0.9212  1.4937
   85DOPC   C3911702   7.519   1.734   4.153 -0.5550  0.0888  0.3522
   85DOPC   H9X11703   7.444   1.805   4.189 -0.5828  1.6229 -2.4537
   85DOPC  C31011704   7.635   1.786   4.110 -0.0653 -0.4820  0.2778
   85DOPC  H10X11705   7.645   1.895   4.107 -0.6107 -0.3591  1.8815
   85DOPC  C31111706   7.750   1.707   4.055 -0.1525  0.0837 -0.1004
   85DOPC  H11X11707   7.741   1.599   4.078  1.7075 -0.1294 -0.1932
   85DOPC  H11Y11708   7.843   1.744   4.104  1.2544 -0.8674 -1.9219
   85DOPC  C31211709   7.765   1.725   3.901 -0.1443  0.2251 -0.2321
   85DOPC  H12X11710   7.665   1.714   3.854 -0.1936  2.4528 -0.7511
   85DOPC  H12Y11711   7.844   1.664   3.851  1.0023  0.2707  1.4404
   85DOPC  C31311712   7.801   1.867   3.853 -0.1102  0.1697 -0.3330
   85DOPC  H13X11713   7.705   1.922   3.847 -0.4644 -0.5381 -1.4150
   85DOPC  H13Y11714   7.867   1.917   3.928 -0.0694  0.6936 -0.7136
   85DOPC  C31411715   7.859   1.858   3.711  0.3665  0.1851 -0.4005
   85DOPC  H14X11716   7.928   1.771   3.705  1.0619  0.6548  0.5967
   85DOPC  H14Y11717   7.774   1.858   3.639  0.3355  1.0012 -0.3675
   85DOPC  C31511718   7.944   1.981   3.687  0.0613 -0.2646  0.4690
   85DOPC  H15X11719   8.024   1.994   3.763 -0.9911 -0.2259  1.6033
   85DOPC  H15Y11720   7.875   2.067   3.705  0.8047  0.1631  1.4189
   85DOPC  C31611721   8.010   1.991   3.549 -0.0826 -0.3108 -0.8963
   85DOPC  H16X11722   8.077   2.079   3.546 -0.5287  0.0190 -1.4940
   85DOPC  H16Y11723   8.071   1.901   3.525  0.6903  0.2785 -1.1617
   85DOPC  C31711724   7.908   2.010   3.437 -0.5027 -0.9959 -0.0539
   85DOPC  H17X11725   7.965   2.002   3.343  0.8208 -0.7953  0.7048
   85DOPC  H17Y11726   7.838   1.924   3.434 -0.2766 -1.2948  1.7771
   85DOPC  C31811727   7.838   2.144   3.430  0.7644  0.0416 -0.3380
   85DOPC  H18X11728   7.773   2.151   3.520 -0.2697 -0.9595 -0.9709
   85DOPC  H18Y11729   7.902   2.234   3.439 -0.3113  0.7105  1.1035
   85DOPC  H18Z11730   7.780   2.154   3.336  1.0428  1.3868 -0.3778
   86DOPC     N11731   2.433   0.334   6.041  0.2256 -0.1140  0.1231
   86DOPC   C1211732   2.332   0.231   5.984 -0.3410 -0.1457  0.0538
   86DOPC  H12A11733   2.254   0.284   5.932 -1.4248 -1.5987  0.1367
   86DOPC  H12B11734   2.274   0.191   6.065 -1.1225  0.7053 -0.0712
   86DOPC   C1311735   2.524   0.262   6.140 -1.0557 -0.1960  0.8314
   86DOPC  H13A11736   2.593   0.329   6.189 -0.5399 -0.1597  0.0797
   86DOPC  H13B11737   2.473   0.219   6.225 -1.0348  2.6407  2.3776
   86DOPC  H13C11738   2.587   0.199   6.079  0.4741  2.5449 -0.6141
   86DOPC   C1411739   2.364   0.441   6.123 -0.8825  0.4562  0.7214
   86DOPC  H14A11740   2.449   0.490   6.169 -0.4853 -0.7867  1.3809
   86DOPC  H14B11741   2.311   0.514   6.064  0.3309  2.4280  1.9310
   86DOPC  H14C11742   2.296   0.411   6.201  0.4388 -2.2625  0.9378
   86DOPC   C1511743   2.504   0.406   5.932  0.6446  0.0349  0.5075
   86DOPC  H15A11744   2.431   0.450   5.865  1.1980 -3.3790 -2.6964
   86DOPC  H15B11745   2.538   0.334   5.858  1.7167 -0.6399  1.6220
   86DOPC  H15C11746   2.581   0.476   5.960  0.6356  0.7705 -1.1652
   86DOPC   C1111747   2.385   0.103   5.901 -0.1459 -0.0494 -0.7605
   86DOPC  H11A11748   2.469   0.048   5.949 -1.1102 -0.2107  0.8174
   86DOPC  H11B11749   2.301   0.030   5.912 -1.1967  1.2753  0.3271
   86DOPC     P11750   2.296   0.176   5.662 -0.0356  0.3879 -0.0509
   86DOPC   O1311751   2.288   0.321   5.635 -0.3457 -0.6718 -0.2427
   86DOPC   O1411752   2.167   0.107   5.701  0.1362  0.0468  0.2746
   86DOPC   O1211753   2.408   0.151   5.771 -0.2766 -0.2168 -0.2564
   86DOPC   O1111754   2.347   0.106   5.526 -0.4934 -0.2148  0.1447
   86DOPC    C111755   2.466   0.162   5.459 -0.5770  0.4579 -0.4315
   86DOPC    HA11756   2.552   0.092   5.456 -0.5664  0.4996 -2.6062
   86DOPC    HB11757   2.502   0.262   5.491 -0.7214  0.2740  0.3184
   86DOPC    C211758   2.422   0.176   5.313  0.1510  0.2013 -0.2467
   86DOPC    HS11759   2.341   0.252   5.318 -0.1980 -0.2305  1.2781
   86DOPC   O2111760   2.392   0.043   5.262  0.1140 -0.3161 -0.2983
   86DOPC   C2111761   2.309   0.040   5.160 -0.5089 -0.0217 -0.3400
   86DOPC   O2211762   2.240   0.133   5.119 -0.0493 -0.1206  0.0000
   86DOPC   C2211763   2.318   8.432   5.095  0.2955  0.0404  0.5694
   86DOPC   H2R11764   2.218   8.411   5.053  0.7472 -1.4265  0.1593
   86DOPC   H2S11765   2.335   8.357   5.175  0.0770 -0.4438  0.1675
   86DOPC    C311766   2.535   0.244   5.226 -0.4147 -0.9609  0.0499
   86DOPC    HX11767   2.631   0.188   5.225  1.3488  1.8328  0.8018
   86DOPC    HY11768   2.562   0.345   5.264  1.7676 -1.1277 -0.8938
   86DOPC   O3111769   2.504   0.262   5.085  0.3869  0.8815 -0.2255
   86DOPC   C3111770   2.439   0.374   5.053  0.0115 -0.1067 -0.1859
   86DOPC   O3211771   2.381   0.444   5.134 -0.5156  0.3926  0.2224
   86DOPC   C3211772   2.451   0.395   4.898  0.2504 -0.2584 -0.2420
   86DOPC   H2X11773   2.561   0.405   4.887  0.2598  1.4408  0.9524
   86DOPC   H2Y11774   2.411   0.301   4.856 -2.7053 -0.0008  1.7221
   86DOPC   C2311775   2.436   8.418   4.993  0.0387  0.6139  0.2399
   86DOPC   H3R11776   2.519   8.451   5.059 -0.9905  2.7106  0.5798
   86DOPC   H3S11777   2.413   8.489   4.910 -0.0182 -0.2288 -0.4736
   86DOPC   C2411778   2.467   8.276   4.944 -0.3287 -0.3814 -0.4853
   86DOPC   H4R11779   2.483   8.205   5.028 -0.5320 -2.6110 -2.2434
   86DOPC   H4S11780   2.565   8.286   4.892 -0.0985  1.5540  0.2097
   86DOPC   C2511781   2.366   8.203   4.851 -0.6297 -0.7769 -0.0216
   86DOPC   H5R11782   2.367   8.251   4.750  1.3956 -2.2994 -0.7988
   86DOPC   H5S11783   2.271   8.223   4.905 -0.1641  2.0321 -0.0734
   86DOPC   C2611784   2.387   8.054   4.832  0.3407 -0.4777  0.0305
   86DOPC   H6R11785   2.295   7.999   4.802 -0.1310 -0.4311  1.3272
   86DOPC   H6S11786   2.428   8.010   4.926 -0.5019 -1.6379 -0.1187
   86DOPC   C2711787   2.493   8.014   4.721 -0.4643  0.1768  0.8881
   86DOPC   H7R11788   2.534   7.910   4.725 -2.4984 -0.7825 -1.1934
   86DOPC   H7S11789   2.582   8.080   4.726 -0.8657  0.7362  0.7283
   86DOPC   C2811790   2.447   8.031   4.576  0.5582 -0.3585  0.0292
   86DOPC   H8R11791   2.546   8.030   4.526  0.9192  1.0606  0.6479
   86DOPC   H8S11792   2.394   8.126   4.554 -0.5078 -1.1597 -0.9719
   86DOPC   C2911793   2.357   7.915   4.536  1.1175  0.0780  0.2001
   86DOPC   H9R11794   2.288   7.880   4.614  2.0249 -0.4425  0.7808
   86DOPC  C21011795   2.341   7.854   4.415 -0.3523  0.0784  0.1350
   86DOPC  H10R11796   2.264   7.777   4.397 -1.7190  1.2241  0.8346
   86DOPC  C21111797   2.422   7.907   4.292 -0.2725  1.2566 -1.1273
   86DOPC  H11R11798   2.496   7.830   4.261  1.2330  1.3048  1.9602
   86DOPC  H11S11799   2.488   7.990   4.325 -0.2784 -0.2446  3.2520
   86DOPC  C21211800   2.333   7.949   4.178  0.2644  0.3524 -0.4645
   86DOPC  H12R11801   2.282   8.043   4.208  2.0014  1.0853  0.3772
   86DOPC  H12S11802   2.248   7.878   4.172  0.3890  0.2779 -1.5471
   86DOPC  C21311803   2.406   7.948   4.044  0.2509 -0.3629  0.0624
   86DOPC  H13R11804   2.468   7.857   4.031  1.4399  0.4479 -0.0657
   86DOPC  H13S11805   2.481   8.030   4.040 -0.0506 -0.0179  1.0495
   86DOPC  C21411806   2.309   7.950   3.926  1.0819 -0.2347 -0.5094
   86DOPC  H14R11807   2.219   8.000   3.969  1.6397 -0.7280  1.3378
   86DOPC  H14S11808   2.273   7.852   3.890  1.0200 -0.0765 -0.8798
   86DOPC  C21511809   2.367   8.025   3.806  0.1279  0.1957  0.5191
   86DOPC  H15R11810   2.461   7.971   3.782  0.4152 -0.8964  3.5871
   86DOPC  H15S11811   2.376   8.133   3.831 -1.1602  0.6862 -0.9806
   86DOPC  C21611812   2.264   8.029   3.684  0.0427 -0.0612 -0.0045
   86DOPC  H16R11813   2.171   8.087   3.705 -0.4212  0.1821 -2.3871
   86DOPC  H16S11814   2.239   7.925   3.655 -1.5448 -0.2840  1.9582
   86DOPC  C21711815   2.333   8.096   3.567  0.3034  0.2612  0.1708
   86DOPC  H17R11816   2.431   8.044   3.559  0.3960  0.2298  1.3583
   86DOPC  H17S11817   2.351   8.205   3.581  0.4718  0.2782 -0.1595
   86DOPC  C21811818   2.259   8.078   3.433 -0.0003 -0.8116  0.3237
   86DOPC  H18R11819   2.159   8.127   3.424  0.8605  1.0155  0.0980
   86DOPC  H18S11820   2.253   7.970   3.409  0.5254 -1.0251  1.1451
   86DOPC  H18T11821   2.323   8.133   3.360 -1.1942 -1.0690 -0.9687
   86DOPC   C3311822   2.392   0.521   4.838 -0.2160 -0.4831  0.0165
   86DOPC   H3X11823   2.415   0.614   4.894 -1.2781 -0.4446  0.4046
   86DOPC   H3Y11824   2.282   0.514   4.842 -0.3188  1.0851  0.3779
   86DOPC   C3411825   2.418   0.543   4.688 -0.1617 -0.8901  0.3929
   86DOPC   H4X11826   2.526   0.569   4.688 -0.5382  0.8911 -0.9640
   86DOPC   H4Y11827   2.369   0.633   4.645 -0.1010 -0.4206  1.2877
   86DOPC   C3511828   2.411   0.428   4.586  1.0352 -0.3953  0.5950
   86DOPC   H5X11829   2.337   0.442   4.504  0.6375 -0.3242  0.9665
   86DOPC   H5Y11830   2.374   0.334   4.632  2.5646 -0.5836  1.5085
   86DOPC   C3611831   2.541   0.382   4.524 -0.2544 -0.4010  0.0599
   86DOPC   H6X11832   2.601   0.474   4.509 -2.3549  1.1250  0.5230
   86DOPC   H6Y11833   2.599   0.310   4.585 -0.4023 -2.1089 -1.6977
   86DOPC   C3711834   2.529   0.331   4.383  0.4810 -0.2786 -0.1987
   86DOPC   H7X11835   2.480   0.231   4.380  4.1797 -2.2753 -3.2369
   86DOPC   H7Y11836   2.478   0.415   4.330  1.5951  1.3579  1.2229
   86DOPC   C3811837   2.663   0.308   4.312  0.5285  0.2041 -0.4116
   86DOPC   H8X11838   2.731   0.286   4.396  0.6553  0.0374 -0.5571
   86DOPC   H8Y11839   2.690   0.410   4.276 -0.9467  0.4691 -0.8344
   86DOPC   C3911840   2.679   0.214   4.194  0.1903 -0.6865 -0.6040
   86DOPC   H9X11841   2.733   0.122   4.221  0.4131 -0.4763 -0.3200
   86DOPC  C31011842   2.631   0.233   4.071  0.2949 -0.3492 -0.0648
   86DOPC  H10X11843   2.644   0.162   3.987  0.9764 -0.6389  0.2726
   86DOPC  C31111844   2.552   0.355   4.035 -0.1834  0.4753  0.0982
   86DOPC  H11X11845   2.592   0.385   3.935 -0.1416 -0.7626 -0.2707
   86DOPC  H11Y11846   2.561   0.441   4.104 -1.6882  0.1572  0.7211
   86DOPC  C31211847   2.400   0.326   4.028  0.0976 -0.3001  0.6231
   86DOPC  H12X11848   2.366   0.274   4.120  0.2072 -4.4452 -1.4711
   86DOPC  H12Y11849   2.383   0.254   3.946 -1.2095  0.0772  0.5430
   86DOPC  C31311850   2.319   0.451   4.007 -0.5076  0.1188 -0.4608
   86DOPC  H13X11851   2.209   0.441   4.016 -0.3833  0.3567  1.9393
   86DOPC  H13Y11852   2.345   0.527   4.083 -1.8040  1.3823 -1.2293
   86DOPC  C31411853   2.353   0.523   3.875 -0.2082 -0.8535  0.1753
   86DOPC  H14X11854   2.457   0.561   3.880  0.0282 -1.6315  1.6533
   86DOPC  H14Y11855   2.355   0.451   3.791 -0.0176  0.1002 -0.6631
   86DOPC  C31511856   2.271   0.645   3.854  0.1652  0.0549 -0.3272
   86DOPC  H15X11857   2.275   0.707   3.946 -2.4408  0.8893 -0.6988
   86DOPC  H15Y11858   2.166   0.615   3.833  0.2279 -0.5720  0.2437
   86DOPC  C31611859   2.324   0.734   3.739 -0.1522 -0.0667  0.4091
   86DOPC  H16X11860   2.265   0.829   3.733  0.4175  0.1851 -2.3928
   86DOPC  H16Y11861   2.431   0.754   3.761  0.7798  0.6154 -3.9195
   86DOPC  C31711862   2.322   0.665   3.608 -0.0670 -0.5785 -0.4968
   86DOPC  H17X11863   2.413   0.602   3.602  0.6970  0.4449  0.0615
   86DOPC  H17Y11864   2.242   0.588   3.602  0.9509 -1.7450  0.2928
   86DOPC  C31811865   2.325   0.753   3.483 -0.1998  0.1645 -0.4351
   86DOPC  H18X11866   2.425   0.799   3.495 -0.0537 -0.0255 -0.9119
   86DOPC  H18Y11867   2.316   0.699   3.386  0.8282  0.2672 -0.6014
   86DOPC  H18Z11868   2.246   0.831   3.478 -0.8023 -0.4154 -0.2011
   87DOPC     N11869   0.688   6.742   5.511  0.0057 -0.6727 -0.2660
   87DOPC   C1211870   0.704   6.611   5.431 -0.5815 -0.7803 -0.7730
   87DOPC  H12A11871   0.781   6.549   5.476  1.4396  0.5383 -2.2419
   87DOPC  H12B11872   0.756   6.636   5.340 -0.3485  1.4669 -0.0934
   87DOPC   C1311873   0.650   6.707   5.653 -0.3300  0.0025  1.1079
   87DOPC  H13A11874   0.644   6.802   5.706  0.4673  1.0281 -0.5584
   87DOPC  H13B11875   0.564   6.642   5.648  1.0285 -1.8199  0.2837
   87DOPC  H13C11876   0.731   6.649   5.696  0.0879  1.5763  2.5842
   87DOPC   C1411877   0.587   6.827   5.451  0.2005  0.5569  0.3992
   87DOPC  H14A11878   0.485   6.791   5.454  0.0709  0.6305 -1.6303
   87DOPC  H14B11879   0.584   6.919   5.507 -1.1955  0.2428  0.8722
   87DOPC  H14C11880   0.601   6.855   5.348 -1.4434 -1.0173 -0.3066
   87DOPC   C1511881   0.825   6.809   5.514  0.2816 -0.2774  0.1009
   87DOPC  H15A11882   0.905   6.740   5.536  0.2555 -0.5242 -0.5449
   87DOPC  H15B11883   0.825   6.887   5.589 -0.5175 -0.7856  0.6365
   87DOPC  H15C11884   0.843   6.861   5.421 -0.6276  0.5464  0.3703
   87DOPC   C1111885   0.581   6.539   5.389 -0.0728  0.7505  0.1120
   87DOPC  H11A11886   0.509   6.547   5.473 -1.8840 -2.5347 -0.9707
   87DOPC  H11B11887   0.537   6.589   5.300  1.6799  2.1621 -0.0415
   87DOPC     P11888   0.496   6.299   5.341 -0.1266 -0.1730 -0.2960
   87DOPC   O1311889   0.408   6.299   5.461 -0.3914  0.0711  0.0601
   87DOPC   O1411890   0.566   6.177   5.300 -0.0509  0.2909  0.2089
   87DOPC   O1211891   0.615   6.401   5.365  0.5022 -0.8666  0.2785
   87DOPC   O1111892   0.414   6.354   5.218 -0.2085 -0.1284  0.4287
   87DOPC    C111893   0.470   6.370   5.091  0.9133 -0.0142 -0.0949
   87DOPC    HA11894   0.439   6.287   5.023 -2.8554  2.4054 -1.6608
   87DOPC    HB11895   0.581   6.370   5.095  0.8832 -0.2066  1.1382
   87DOPC    C211896   0.416   6.491   5.020 -0.4756 -0.4299  0.1328
   87DOPC    HS11897   0.344   6.552   5.078  0.7441  1.2039 -0.0229
   87DOPC   O2111898   0.343   6.435   4.905  0.1695  0.1884 -0.0147
   87DOPC   C2111899   0.226   6.475   4.880 -0.4109 -0.1747 -0.2950
   87DOPC   O2211900   0.165   6.565   4.936  0.8406 -0.2161 -0.0323
   87DOPC   C2211901   0.169   6.397   4.762 -0.0927  0.7518 -0.0225
   87DOPC   H2R11902   0.077   6.442   4.721  0.9036  0.0307 -3.3579
   87DOPC   H2S11903   0.138   6.294   4.790  2.2542 -1.3170 -4.1019
   87DOPC    C311904   0.537   6.592   4.983  0.7149 -0.1007  0.0758
   87DOPC    HX11905   0.618   6.536   4.931 -1.0886 -1.9804 -0.8951
   87DOPC    HY11906   0.577   6.641   5.074  1.8469  1.0701 -1.0075
   87DOPC   O3111907   0.495   6.692   4.889 -0.4828 -0.1578  0.3869
   87DOPC   C3111908   0.456   6.807   4.933 -0.1290 -0.5922  0.3812
   87DOPC   O3211909   0.451   6.849   5.047  0.2713  0.4466  0.0628
   87DOPC   C3211910   0.428   6.897   4.813 -0.0057 -0.6915 -0.0937
   87DOPC   H2X11911   0.328   6.944   4.821  0.9712  1.1127  3.6226
   87DOPC   H2Y11912   0.502   6.980   4.823  1.3395 -1.7861 -0.6024
   87DOPC   C2311913   0.254   6.397   4.626 -0.2101  0.4258  0.0738
   87DOPC   H3R11914   0.353   6.351   4.642  0.8888  1.4735 -3.0719
   87DOPC   H3S11915   0.266   6.501   4.589  1.4105 -0.2811 -1.5177
   87DOPC   C2411916   0.198   6.310   4.507 -0.8041 -0.2351  0.3848
   87DOPC   H4R11917   0.106   6.364   4.477 -1.2758 -1.4309 -0.4041
   87DOPC   H4S11918   0.150   6.214   4.538 -0.7521  0.0067  1.2414
   87DOPC   C2511919   0.296   6.295   4.385  0.2837  0.1484  0.2333
   87DOPC   H5R11920   0.352   6.200   4.391  0.6534  0.4088  1.1105
   87DOPC   H5S11921   0.371   6.377   4.397 -0.2674  0.9019 -1.2271
   87DOPC   C2611922   0.230   6.314   4.246 -0.2143 -0.2647 -0.5923
   87DOPC   H6R11923   0.180   6.413   4.256 -0.2271 -0.3330  0.0538
   87DOPC   H6S11924   0.153   6.235   4.232  0.2924 -0.4769 -2.3595
   87DOPC   C2711925   0.323   6.333   4.130 -0.0752  0.2210  0.1709
   87DOPC   H7R11926   0.382   6.239   4.122  0.6061  0.6872 -0.3829
   87DOPC   H7S11927   0.391   6.420   4.142 -2.3236  2.1089  0.0515
   87DOPC   C2811928   0.246   6.336   3.995  0.2847 -0.2695  0.0901
   87DOPC   H8R11929   0.201   6.435   3.975  0.7099 -0.3258 -1.2672
   87DOPC   H8S11930   0.163   6.262   4.002  0.9088 -0.9459  0.5681
   87DOPC   C2911931   0.335   6.306   3.877  0.0740  0.3769  0.1231
   87DOPC   H9R11932   0.414   6.230   3.888 -1.4147 -1.1491  0.7425
   87DOPC  C21011933   0.338   6.373   3.760 -0.2882  0.1589 -0.1112
   87DOPC  H10R11934   0.412   6.348   3.682 -0.8259 -0.9229 -0.2768
   87DOPC  C21111935   0.252   6.495   3.725 -0.3102  0.2888  0.4105
   87DOPC  H11R11936   0.305   6.564   3.656  1.3212  0.4766  1.7695
   87DOPC  H11S11937   0.225   6.559   3.812 -0.7294  2.1731 -1.0405
   87DOPC  C21211938   0.129   6.436   3.663  0.0350  0.8605  0.7920
   87DOPC  H12R11939   0.059   6.519   3.639 -1.4697 -0.7289 -0.6079
   87DOPC  H12S11940   0.078   6.365   3.731  0.0739 -0.6157 -0.6260
   87DOPC  C21311941   0.160   6.354   3.535 -0.3200  0.2156 -0.2012
   87DOPC  H13R11942   0.209   6.259   3.565 -0.2463  0.3130 -0.0121
   87DOPC  H13S11943   0.229   6.415   3.473  1.9088 -1.3973  0.5195
   87DOPC  C21411944   0.035   6.318   3.458  0.4389 -0.5308 -0.1642
   87DOPC  H14R11945   8.507   6.409   3.440  0.6607 -0.6072 -1.3793
   87DOPC  H14S11946   8.521   6.256   3.536 -1.5202 -0.5251 -1.3163
   87DOPC  C21511947   0.064   6.227   3.337 -0.0262  0.8817  0.0085
   87DOPC  H15R11948   0.100   6.128   3.373 -3.1267 -0.6760 -0.8495
   87DOPC  H15S11949   0.143   6.273   3.273  2.1142 -0.6796  1.3903
   87DOPC  C21611950   8.468   6.206   3.263  0.2776 -0.6851 -0.1037
   87DOPC  H16R11951   8.437   6.305   3.223  2.4987  0.7660  1.5142
   87DOPC  H16S11952   8.396   6.172   3.340 -1.8305  2.4995 -0.5227
   87DOPC  C21711953   8.481   6.115   3.139  0.3653 -0.0877 -0.6292
   87DOPC  H17R11954   8.509   6.012   3.171  1.3614  0.2193 -0.4901
   87DOPC  H17S11955   0.021   6.153   3.067  0.7190 -1.0766 -0.8053
   87DOPC  C21811956   8.347   6.099   3.059 -0.0180  0.6348  0.0910
   87DOPC  H18R11957   8.376   6.044   2.967  3.0189  0.1430  1.2140
   87DOPC  H18S11958   8.302   6.197   3.031 -0.0534  0.5981  0.0187
   87DOPC  H18T11959   8.263   6.047   3.110 -0.5982  0.2286 -1.2331
   87DOPC   C3311960   0.441   6.839   4.669 -0.0933  0.0776 -0.5079
   87DOPC   H3X11961   0.354   6.770   4.667  0.5698 -0.7777 -0.7645
   87DOPC   H3Y11962   0.532   6.775   4.667 -0.4582 -0.4264 -2.3429
   87DOPC   C3411963   0.418   6.941   4.562 -0.4174  0.5184  0.1451
   87DOPC   H4X11964   0.485   7.029   4.570 -1.0976  0.9324  2.1058
   87DOPC   H4Y11965   0.320   6.981   4.598 -0.7550 -0.4818  0.3812
   87DOPC   C3511966   0.405   6.880   4.421 -0.3447  0.2772  0.8176
   87DOPC   H5X11967   0.386   6.960   4.347 -0.0157  0.0563  0.4908
   87DOPC   H5Y11968   0.322   6.806   4.426  0.0292 -0.1820  0.3927
   87DOPC   C3611969   0.530   6.805   4.370 -0.1345 -0.1356 -0.0112
   87DOPC   H6X11970   0.548   6.715   4.432 -1.8627 -1.5155 -1.4094
   87DOPC   H6Y11971   0.500   6.774   4.268  2.3795 -1.7622 -0.3387
   87DOPC   C3711972   0.654   6.890   4.366  0.0162  0.5987 -0.2465
   87DOPC   H7X11973   0.676   6.923   4.469 -0.8220 -2.0210  0.8516
   87DOPC   H7Y11974   0.738   6.825   4.333 -0.0263  1.1364 -1.5007
   87DOPC   C3811975   0.656   7.024   4.281  0.3652  0.6461  0.1234
   87DOPC   H8X11976   0.742   7.090   4.303  1.4470 -0.6768  0.0191
   87DOPC   H8Y11977   0.571   7.085   4.316  0.1515 -0.7248  2.1606
   87DOPC   C3911978   0.631   6.982   4.136 -0.9031 -0.0871 -0.3403
   87DOPC   H9X11979   0.684   6.888   4.112 -0.4953 -0.1184  0.6254
   87DOPC  C31011980   0.544   7.026   4.045 -0.2785 -0.5565 -0.0544
   87DOPC  H10X11981   0.550   6.980   3.946 -1.2722  2.7481 -1.8176
   87DOPC  C31111982   0.448   7.143   4.047 -0.3567  0.9598 -0.0871
   87DOPC  H11X11983   0.418   7.154   4.153  1.7218  0.8539  0.5543
   87DOPC  H11Y11984   0.351   7.117   4.000 -0.5712  2.5053 -0.5628
   87DOPC  C31211985   0.509   7.271   3.984 -0.1195  0.2955  0.1030
   87DOPC  H12X11986   0.608   7.286   4.031  0.5038  1.6756 -1.5429
   87DOPC  H12Y11987   0.449   7.358   4.019 -0.6440  0.9586 -2.2254
   87DOPC  C31311988   0.517   7.269   3.828  0.0327  0.1175 -0.1714
   87DOPC  H13X11989   0.595   7.197   3.792  2.6728  1.4062  2.5016
   87DOPC  H13Y11990   0.425   7.211   3.805  0.4015 -1.3131  1.7081
   87DOPC  C31411991   0.519   7.402   3.760  0.4229 -0.2650  0.3469
   87DOPC  H14X11992   0.428   7.461   3.783 -0.3645 -1.5770  0.6332
   87DOPC  H14Y11993   0.606   7.456   3.806 -1.0721  0.3886  2.5592
   87DOPC  C31511994   0.536   7.398   3.606 -0.5439  0.5410 -0.0211
   87DOPC  H15X11995   0.434   7.369   3.574 -0.1522 -1.7129  0.6029
   87DOPC  H15Y11996   0.598   7.314   3.566  1.2271  1.7719  0.0410
   87DOPC  C31611997   0.581   7.531   3.548 -0.4091 -0.1257  0.1650
   87DOPC  H16X11998   0.569   7.514   3.439  1.0384 -2.9643  0.3564
   87DOPC  H16Y11999   0.512   7.612   3.580 -0.3098 -0.5939  1.6622
   87DOPC  C31712000   0.722   7.577   3.588 -0.1124  0.1205  0.6394
   87DOPC  H17X12001   0.747   7.672   3.536  0.4130 -0.3646 -0.0183
   87DOPC  H17Y12002   0.725   7.602   3.696  2.5350 -0.6856  0.8178
   87DOPC  C31812003   0.840   7.479   3.568  0.6074  0.2279 -0.6034
   87DOPC  H18X12004   0.836   7.439   3.464 -1.5328  4.1542 -2.2505
   87DOPC  H18Y12005   0.939   7.522   3.595 -0.0082  0.4784  1.4122
   87DOPC  H18Z12006   0.836   7.394   3.639 -0.2548  0.2037 -0.6698
   88DOPC     N12007   8.486   6.244   5.329 -0.5710  0.5169 -0.1169
   88DOPC   C1212008   0.089   6.208   5.274 -0.4361 -0.4978 -0.0672
   88DOPC  H12A12009   0.122   6.120   5.328 -0.1015  0.3866  1.2223
   88DOPC  H12B12010   0.160   6.284   5.303 -0.2839 -1.0905  1.1896
   88DOPC   C1312011   8.503   6.269   5.476  0.3231 -0.0423 -0.1020
   88DOPC  H13A12012   8.414   6.309   5.523  0.1458 -0.0439 -0.4356
   88DOPC  H13B12013   0.016   6.195   5.538  0.4561 -0.0028 -0.1579
   88DOPC  H13C12014   0.042   6.347   5.482 -0.0908  0.4890 -1.5143
   88DOPC   C1412015   8.399   6.130   5.303  0.1136 -0.3294  0.3315
   88DOPC  H14A12016   8.426   6.040   5.357 -1.1112 -0.5550  0.6046
   88DOPC  H14B12017   8.297   6.161   5.321  0.7881  2.6583 -0.4050
   88DOPC  H14C12018   8.417   6.117   5.197  2.3432 -0.7073  0.7118
   88DOPC   C1512019   8.443   6.366   5.255  0.6385 -0.2394  0.6936
   88DOPC  H15A12020   8.517   6.443   5.272  2.3018 -1.4549 -0.7156
   88DOPC  H15B12021   8.343   6.392   5.286 -0.7943 -2.1945 -1.9048
   88DOPC  H15C12022   8.422   6.346   5.151  0.0100 -1.3578  1.0216
   88DOPC   C1112023   0.100   6.183   5.126 -0.5590 -0.0712  0.0106
   88DOPC  H11A12024   0.056   6.267   5.068  1.7218  1.9061  0.9611
   88DOPC  H11B12025   0.210   6.185   5.110 -0.2607 -0.0854  1.8164
   88DOPC     P12026   0.124   5.918   5.097  0.4103  0.3679  0.0301
   88DOPC   O1312027   0.062   5.833   4.996 -0.1509  0.2265 -0.0074
   88DOPC   O1412028   0.114   5.876   5.233 -0.1156 -0.2542 -0.2753
   88DOPC   O1212029   0.046   6.058   5.093  0.1229  0.3217  0.0158
   88DOPC   O1112030   0.270   5.945   5.047  0.3581 -0.3029 -0.3618
   88DOPC    C112031   0.295   6.021   4.922 -0.1426  0.1417  0.3464
   88DOPC    HA12032   0.382   6.086   4.942  0.0240 -0.5109  1.8686
   88DOPC    HB12033   0.213   6.092   4.898 -1.0799 -0.1036  2.5651
   88DOPC    C212034   0.316   5.930   4.809  0.2647  0.0270  0.0569
   88DOPC    HS12035   0.220   5.878   4.785  0.0054 -0.2787  1.6647
   88DOPC   O2112036   0.426   5.837   4.827 -0.5053  0.1357 -0.1857
   88DOPC   C2112037   0.433   5.735   4.751  0.2918 -0.0224 -0.7861
   88DOPC   O2212038   0.345   5.696   4.678  0.4205  0.1592  0.5271
   88DOPC   C2212039   0.574   5.673   4.764  0.3708  0.7088 -0.9608
   88DOPC   H2R12040   0.574   5.608   4.854 -1.0354 -0.4806 -1.7869
   88DOPC   H2S12041   0.653   5.752   4.760 -0.8921  2.0190 -0.8305
   88DOPC    C312042   0.342   6.023   4.682  0.0168  0.2442 -0.4123
   88DOPC    HX12043   0.445   6.061   4.701  0.4683 -0.4633 -1.3660
   88DOPC    HY12044   0.277   6.112   4.696  0.0930  0.1619  0.5479
   88DOPC   O3112045   0.348   5.960   4.546  0.2134  0.6376  0.1431
   88DOPC   C3112046   0.233   5.939   4.490  0.1893  0.1908  0.1223
   88DOPC   O3212047   0.122   5.965   4.539 -0.5149 -0.1840 -0.1897
   88DOPC   C3212048   0.255   5.859   4.360  0.2425  0.2086  0.3657
   88DOPC   H2X12049   0.344   5.794   4.378  2.1174  2.4182 -0.3169
   88DOPC   H2Y12050   0.161   5.804   4.343  1.0125 -0.3277 -2.8254
   88DOPC   C2312051   0.601   5.588   4.641 -0.0392 -0.3701  0.2931
   88DOPC   H3R12052   0.522   5.512   4.622 -1.2469  1.2990 -1.7407
   88DOPC   H3S12053   0.696   5.535   4.664 -0.6639 -1.2808  0.8880
   88DOPC   C2412054   0.625   5.669   4.510 -0.5709  0.1172 -0.3284
   88DOPC   H4R12055   0.530   5.710   4.472 -0.6197 -0.5816 -0.9877
   88DOPC   H4S12056   0.658   5.597   4.432 -0.0752 -1.1532  0.9986
   88DOPC   C2512057   0.725   5.794   4.528 -1.0002  0.1269 -0.8797
   88DOPC   H5R12058   0.800   5.766   4.605 -1.2489 -2.3705 -1.4763
   88DOPC   H5S12059   0.662   5.875   4.571  0.6188  0.3336  1.2911
   88DOPC   C2612060   0.787   5.838   4.399 -0.0190  0.4527 -1.0906
   88DOPC   H6R12061   0.852   5.761   4.351  2.2691  2.0333 -0.7095
   88DOPC   H6S12062   0.846   5.930   4.413  1.4087 -0.7894  1.8797
   88DOPC   C2712063   0.683   5.865   4.291  0.3538 -0.5654  0.0210
   88DOPC   H7R12064   0.607   5.926   4.345 -0.8761 -1.9416 -0.0953
   88DOPC   H7S12065   0.619   5.780   4.261 -0.3468  0.7482 -2.5172
   88DOPC   C2812066   0.747   5.941   4.168 -0.0360  1.1918 -0.1665
   88DOPC   H8R12067   0.804   6.026   4.212 -1.2448  1.3206  1.2174
   88DOPC   H8S12068   0.671   5.982   4.098  2.2612  0.5677 -3.2760
   88DOPC   C2912069   0.846   5.851   4.093  0.1831 -0.2577  0.5547
   88DOPC   H9R12070   0.830   5.746   4.121  2.7903 -0.4599  1.5186
   88DOPC  C21012071   0.943   5.882   4.002 -0.0169 -0.6321  0.3888
   88DOPC  H10R12072   1.005   5.797   3.970  1.4581  0.4260  0.3291
   88DOPC  C21112073   0.993   6.011   3.959 -1.1144  0.1228  0.1582
   88DOPC  H11R12074   1.103   5.993   3.958 -0.6680  1.9947  2.9662
   88DOPC  H11S12075   0.973   6.087   4.038  1.0731  1.3806 -0.4054
   88DOPC  C21212076   0.959   6.067   3.826  0.3695 -0.0578  0.5734
   88DOPC  H12R12077   0.960   5.982   3.755 -1.6303 -0.2078  0.6778
   88DOPC  H12S12078   1.040   6.137   3.797  1.2811 -0.5977  1.7359
   88DOPC  C21312079   0.812   6.119   3.821 -0.6647  0.7454  0.1184
   88DOPC  H13R12080   0.809   6.199   3.899 -0.5256  0.4893  0.3909
   88DOPC  H13S12081   0.742   6.038   3.850 -3.2214  1.9537 -2.2264
   88DOPC  C21412082   0.780   6.179   3.682 -0.8880 -0.3793 -0.3598
   88DOPC  H14R12083   0.869   6.155   3.620  1.0842  1.4144  1.5897
   88DOPC  H14S12084   0.772   6.290   3.681 -0.2447 -0.3122  0.6414
   88DOPC  C21512085   0.662   6.118   3.608 -0.1560 -0.1434  0.0809
   88DOPC  H15R12086   0.574   6.133   3.674  0.8077 -1.2313  1.6926
   88DOPC  H15S12087   0.679   6.008   3.600  0.3322 -0.1668  1.3032
   88DOPC  C21612088   0.632   6.166   3.462  0.7348  0.6566 -0.6897
   88DOPC  H16R12089   0.708   6.138   3.386 -0.2183 -0.2970 -1.3295
   88DOPC  H16S12090   0.614   6.275   3.458 -2.1376  0.3459  0.5939
   88DOPC  C21712091   0.496   6.099   3.408 -0.2821  0.5462  0.6142
   88DOPC  H17R12092   0.410   6.140   3.466 -0.3057 -0.5353  1.3974
   88DOPC  H17S12093   0.497   5.992   3.437 -0.5824  0.1676 -0.7054
   88DOPC  C21812094   0.471   6.136   3.259 -0.2004 -0.7135 -0.6047
   88DOPC  H18R12095   0.556   6.113   3.190 -0.2257 -0.1009 -0.8432
   88DOPC  H18S12096   0.433   6.240   3.255 -1.8687 -1.2446  0.6386
   88DOPC  H18T12097   0.383   6.087   3.213 -0.0444  0.7070 -2.5818
   88DOPC   C3312098   0.297   5.948   4.234  0.8147  0.5314  0.5765
   88DOPC   H3X12099   0.396   5.995   4.248  1.2803 -0.6845  1.5314
   88DOPC   H3Y12100   0.214   6.022   4.227  0.5958  0.2298 -0.2094
   88DOPC   C3412101   0.292   5.874   4.095 -0.0991 -0.5315 -0.3330
   88DOPC   H4X12102   0.219   5.792   4.110  1.7306 -1.9988  1.0813
   88DOPC   H4Y12103   0.388   5.821   4.078  0.3129 -0.0338  0.3770
   88DOPC   C3512104   0.274   5.969   3.979 -0.4607  0.4403 -0.2507
   88DOPC   H5X12105   0.352   6.047   3.970 -0.5843  0.5823 -0.0897
   88DOPC   H5Y12106   0.184   6.032   3.993  1.3879  3.2237 -0.2108
   88DOPC   C3612107   0.265   5.891   3.849 -0.2469  0.4910 -0.4499
   88DOPC   H6X12108   0.357   5.834   3.825 -1.4229 -3.2685  2.8068
   88DOPC   H6Y12109   0.183   5.818   3.863  1.0018 -1.1220 -1.2637
   88DOPC   C3712110   0.236   5.987   3.725 -1.0268 -0.2647  0.6861
   88DOPC   H7X12111   0.157   6.060   3.752 -3.1977 -2.4685  0.6308
   88DOPC   H7Y12112   0.332   6.038   3.704 -1.5141  0.0110 -1.0307
   88DOPC   C3812113   0.200   5.907   3.599 -0.0151  0.1568 -0.2831
   88DOPC   H8X12114   0.298   5.856   3.589  2.4935  4.2125  1.1451
   88DOPC   H8Y12115   0.195   5.985   3.520  1.8619  1.3073  0.6527
   88DOPC   C3912116   0.069   5.830   3.613 -0.7708 -0.0294 -0.3087
   88DOPC   H9X12117   0.010   5.853   3.703  2.9033  1.5059  1.9365
   88DOPC  C31012118   0.039   5.733   3.530 -0.5246  0.5887 -0.6475
   88DOPC  H10X12119   8.482   5.673   3.534 -1.6101  1.9742 -2.7945
   88DOPC  C31112120   0.111   5.684   3.408  0.0700 -0.6677  0.1128
   88DOPC  H11X12121   0.181   5.602   3.434 -1.6403 -3.4382 -3.2061
   88DOPC  H11Y12122   0.167   5.769   3.365  2.2546 -2.0183  0.1407
   88DOPC  C31212123   0.018   5.624   3.308  0.5207 -0.2382 -0.8035
   88DOPC  H12X12124   0.071   5.641   3.212  3.1379 -1.6248  0.2916
   88DOPC  H12Y12125   8.459   5.680   3.289 -0.6735 -1.9602 -0.2838
   88DOPC  C31312126   8.535   5.475   3.328  0.0492  0.0348  0.0084
   88DOPC  H13X12127   0.099   5.428   3.308 -0.2049  0.1358 -1.6028
   88DOPC  H13Y12128   8.505   5.470   3.435 -1.6243  1.7165 -0.3380
   88DOPC  C31412129   8.423   5.408   3.249  0.1347  0.1619 -0.2890
   88DOPC  H14X12130   8.330   5.442   3.299 -0.4429 -2.4238  0.5255
   88DOPC  H14Y12131   8.416   5.434   3.141  0.6977  0.2420 -0.3121
   88DOPC  C31512132   8.427   5.253   3.251  0.0548 -0.0107 -0.1677
   88DOPC  H15X12133   8.450   5.219   3.355 -1.9230 -0.9561  0.0018
   88DOPC  H15Y12134   8.507   5.226   3.179  0.9258 -2.3284  1.5001
   88DOPC  C31612135   8.289   5.203   3.199 -0.4809  0.1299 -0.0822
   88DOPC  H16X12136   8.204   5.237   3.262  0.8503  2.4840  0.5548
   88DOPC  H16Y12137   8.281   5.253   3.100 -1.6234 -1.3896 -0.8013
   88DOPC  C31712138   8.280   5.054   3.176 -0.7876 -0.1048  0.2576
   88DOPC  H17X12139   8.366   5.003   3.127  0.9737  0.8744  2.1939
   88DOPC  H17Y12140   8.279   4.998   3.272  2.0150 -1.6841 -0.4913
   88DOPC  C31812141   8.143   5.017   3.117  0.1033 -0.3445 -0.2450
   88DOPC  H18X12142   8.132   5.075   3.023 -0.7526 -1.5921 -0.9395
   88DOPC  H18Y12143   8.134   4.909   3.092 -1.3051  0.3342 -3.0735
   88DOPC  H18Z12144   8.057   5.042   3.183 -0.6299 -1.4571 -0.7435
   89DOPC     N12145   7.388   3.886   5.600 -0.2653 -0.6416  0.1770
   89DOPC   C1212146   7.255   3.814   5.561 -0.3884  0.2768 -0.5957
   89DOPC  H12A12147   7.192   3.813   5.648  0.3920 -2.4539  0.0251
   89DOPC  H12B12148   7.273   3.710   5.542 -1.6973  0.0257 -0.5385
   89DOPC   C1312149   7.458   3.797   5.695 -0.6366  0.3092 -0.7061
   89DOPC  H13A12150   7.389   3.774   5.775 -0.5743  2.3958  0.0156
   89DOPC  H13B12151   7.481   3.702   5.649 -0.4103 -1.2088  2.3264
   89DOPC  H13C12152   7.549   3.837   5.737 -0.6189  1.1152 -1.4946
   89DOPC   C1412153   7.351   4.013   5.661  0.1070 -0.5167  0.1741
   89DOPC  H14A12154   7.324   4.085   5.585 -1.2948  0.0308  1.1442
   89DOPC  H14B12155   7.278   4.011   5.741  1.9743 -0.4255  1.9869
   89DOPC  H14C12156   7.443   4.060   5.693  0.4721  0.2866 -1.8945
   89DOPC   C1512157   7.469   3.910   5.480  0.6172 -0.0177 -0.7868
   89DOPC  H15A12158   7.506   3.815   5.442  0.7565 -0.1713 -0.2748
   89DOPC  H15B12159   7.559   3.967   5.502 -0.1819  0.5086  1.2864
   89DOPC  H15C12160   7.410   3.966   5.409 -0.5765 -0.8645 -0.4774
   89DOPC   C1112161   7.165   3.875   5.448 -0.1184  0.1108 -0.6931
   89DOPC  H11A12162   7.232   3.866   5.360  1.8695  1.6580  0.5397
   89DOPC  H11B12163   7.085   3.798   5.457  0.7460 -0.7110  0.3823
   89DOPC     P12164   7.071   4.109   5.384  0.0725  0.3619 -0.1333
   89DOPC   O1312165   7.107   4.244   5.432 -0.4228  0.0379  0.6101
   89DOPC   O1412166   6.925   4.081   5.372 -0.2904 -0.5054 -0.4141
   89DOPC   O1212167   7.129   4.004   5.485  0.4248 -0.4846 -0.0488
   89DOPC   O1112168   7.139   4.086   5.247 -0.1517  0.4139  0.2368
   89DOPC    C112169   7.209   4.191   5.185  0.5175 -0.6180 -0.4385
   89DOPC    HA12170   7.291   4.148   5.125 -1.6803 -0.0306 -4.1817
   89DOPC    HB12171   7.259   4.266   5.251  1.8449  0.4020 -2.5067
   89DOPC    C212172   7.120   4.288   5.096 -0.3648 -0.5154 -0.2451
   89DOPC    HS12173   7.059   4.351   5.165  2.1649  0.9761  0.7402
   89DOPC   O2112174   7.043   4.204   5.016 -0.2632  0.4493 -0.3315
   89DOPC   C2112175   6.934   4.260   4.959  0.1076  0.4675 -0.6830
   89DOPC   O2212176   6.891   4.371   4.994 -0.1869  0.4369  0.0050
   89DOPC   C2212177   6.870   4.155   4.866 -0.6552 -0.0329  0.0604
   89DOPC   H2R12178   6.770   4.185   4.827 -0.6168 -0.8864 -0.7401
   89DOPC   H2S12179   6.865   4.064   4.930  1.8962 -0.2374  0.0742
   89DOPC    C312180   7.226   4.380   5.016 -0.1192  0.3927 -0.4251
   89DOPC    HX12181   7.275   4.303   4.953 -2.2263 -2.3194  1.0459
   89DOPC    HY12182   7.282   4.434   5.095  0.2686 -0.5115 -0.0740
   89DOPC   O3112183   7.174   4.475   4.928 -0.0888 -0.6626 -0.4921
   89DOPC   C3112184   7.255   4.523   4.836 -0.5870  0.6038  0.4261
   89DOPC   O3212185   7.370   4.475   4.823 -0.4220 -0.3740  0.6840
   89DOPC   C3212186   7.189   4.629   4.744 -0.1245 -0.9178 -0.0458
   89DOPC   H2X12187   7.113   4.577   4.682 -0.7195 -0.0696 -0.0514
   89DOPC   H2Y12188   7.143   4.705   4.811 -0.7204 -1.7585  0.5281
   89DOPC   C2312189   6.964   4.128   4.749  1.1028  0.3505  0.4369
   89DOPC   H3R12190   6.922   4.044   4.691  1.0317  0.0529  0.9136
   89DOPC   H3S12191   7.060   4.088   4.788  1.1082 -0.2834 -0.2075
   89DOPC   C2412192   6.992   4.246   4.659 -0.1159 -0.0619 -0.6102
   89DOPC   H4R12193   7.071   4.229   4.582 -1.1668 -1.0221 -1.5255
   89DOPC   H4S12194   7.029   4.324   4.729 -0.2590 -1.4607  1.0996
   89DOPC   C2512195   6.879   4.282   4.568 -0.2026 -0.0742  0.0487
   89DOPC   H5R12196   6.804   4.327   4.637 -1.2633 -1.4995 -0.1359
   89DOPC   H5S12197   6.826   4.197   4.521  0.7464 -1.1226  0.8216
   89DOPC   C2612198   6.911   4.396   4.459 -0.4195 -0.1699 -0.3337
   89DOPC   H6R12199   7.001   4.359   4.405 -0.2382 -1.8241  1.0190
   89DOPC   H6S12200   6.951   4.492   4.498 -0.2516  0.4068 -1.8275
   89DOPC   C2712201   6.800   4.431   4.358 -0.2613  0.4850  1.1266
   89DOPC   H7R12202   6.712   4.480   4.405 -0.7153  0.9106 -0.1273
   89DOPC   H7S12203   6.765   4.333   4.320 -0.5607 -0.0882  2.7875
   89DOPC   C2812204   6.847   4.521   4.237  0.1368  0.1244  0.0738
   89DOPC   H8R12205   6.947   4.489   4.204  1.1524  1.1352  1.9944
   89DOPC   H8S12206   6.856   4.624   4.278 -0.3984 -0.5687  2.0426
   89DOPC   C2912207   6.730   4.524   4.139  0.1414  0.1282  0.1487
   89DOPC   H9R12208   6.639   4.566   4.185  0.9648  1.7060  0.4191
   89DOPC  C21012209   6.743   4.504   4.009 -0.6627 -0.8701 -0.0478
   89DOPC  H10R12210   6.651   4.521   3.951 -1.7077 -0.8966  1.5040
   89DOPC  C21112211   6.861   4.443   3.935  0.2878 -0.5832 -0.3482
   89DOPC  H11R12212   6.961   4.447   3.983 -0.2399  0.4159  0.7420
   89DOPC  H11S12213   6.876   4.489   3.835  0.4647  2.1611  0.8550
   89DOPC  C21212214   6.833   4.294   3.902 -0.2930 -0.3632 -0.0269
   89DOPC  H12R12215   6.911   4.266   3.828 -0.2822 -0.6645  0.0981
   89DOPC  H12S12216   6.734   4.285   3.852  0.7850  2.4667 -3.0285
   89DOPC  C21312217   6.832   4.200   4.030  0.1823  0.4347  0.1777
   89DOPC  H13R12218   6.796   4.107   3.982 -1.9663  1.8255 -1.0407
   89DOPC  H13S12219   6.767   4.242   4.109  1.2212 -0.6666  1.6736
   89DOPC  C21412220   6.978   4.156   4.075  0.7240 -0.4917  0.0517
   89DOPC  H14R12221   7.022   4.241   4.131 -0.9050  0.1273  0.4411
   89DOPC  H14S12222   7.034   4.159   3.979  1.4871  2.6557  0.5023
   89DOPC  C21512223   6.988   4.016   4.140  0.2532 -0.6476  0.9529
   89DOPC  H15R12224   7.093   3.979   4.136  0.4494  0.0395 -1.2081
   89DOPC  H15S12225   6.935   3.946   4.073  0.8444  1.5641 -2.0602
   89DOPC  C21612226   6.932   4.013   4.283 -0.0534  0.1516 -0.2987
   89DOPC  H16R12227   6.845   4.079   4.303 -0.8971 -0.5994 -1.4076
   89DOPC  H16S12228   7.011   4.061   4.345 -0.0699 -1.5290  1.0850
   89DOPC  C21712229   6.885   3.872   4.329 -0.0693  0.1475 -0.4585
   89DOPC  H17R12230   6.782   3.850   4.294 -0.2412 -0.4276  0.3853
   89DOPC  H17S12231   6.881   3.875   4.440  0.2014 -0.1292 -0.4402
   89DOPC  C21812232   6.976   3.759   4.296 -0.4754 -0.5177 -0.2611
   89DOPC  H18R12233   7.074   3.763   4.349 -1.0533  0.3779  0.7893
   89DOPC  H18S12234   7.001   3.770   4.189  0.6599  0.5026  0.0831
   89DOPC  H18T12235   6.929   3.660   4.315 -1.2281  0.2657  2.5296
   89DOPC   C3312236   7.286   4.698   4.655 -0.3045 -0.2678  0.1187
   89DOPC   H3X12237   7.329   4.613   4.597  2.3963  1.4204 -0.5279
   89DOPC   H3Y12238   7.368   4.750   4.709  0.6894  0.5476 -2.0631
   89DOPC   C3412239   7.218   4.796   4.552 -0.1704  0.5435 -0.5262
   89DOPC   H4X12240   7.292   4.878   4.537 -0.6134  0.9567 -0.4750
   89DOPC   H4Y12241   7.125   4.839   4.595 -0.6187  1.2300 -2.1043
   89DOPC   C3512242   7.191   4.722   4.423  0.5031 -0.5193 -0.1182
   89DOPC   H5X12243   7.144   4.794   4.352  0.7445 -0.3597 -0.1187
   89DOPC   H5Y12244   7.117   4.646   4.455 -0.1971  0.9236  1.9142
   89DOPC   C3612245   7.319   4.666   4.360 -0.2716 -0.3334  0.5811
   89DOPC   H6X12246   7.413   4.720   4.384 -0.0424 -0.9853  1.2003
   89DOPC   H6Y12247   7.337   4.561   4.391 -0.9651 -0.0754  1.9021
   89DOPC   C3712248   7.326   4.673   4.204 -0.2985 -0.2086 -0.0438
   89DOPC   H7X12249   7.315   4.778   4.170 -0.9102  0.2210  1.4119
   89DOPC   H7Y12250   7.432   4.646   4.180  0.5743  2.0720  0.9916
   89DOPC   C3812251   7.218   4.597   4.125  0.3306 -0.2206  0.4150
   89DOPC   H8X12252   7.124   4.641   4.164  0.7546  0.7921  0.3082
   89DOPC   H8Y12253   7.217   4.489   4.152 -2.1248 -0.2993  0.2564
   89DOPC   C3912254   7.244   4.626   3.975 -0.2780  0.0225 -1.0074
   89DOPC   H9X12255   7.232   4.732   3.950  1.0609  0.3813 -0.2468
   89DOPC  C31012256   7.295   4.544   3.883  0.0872 -0.0739 -0.9020
   89DOPC  H10X12257   7.307   4.586   3.782 -1.7606 -1.8195 -1.9345
   89DOPC  C31112258   7.327   4.398   3.910  0.5067  0.2786 -0.5518
   89DOPC  H11X12259   7.302   4.362   4.013  0.8084 -0.4268 -0.7199
   89DOPC  H11Y12260   7.435   4.373   3.902 -0.1063 -2.9301 -0.0797
   89DOPC  C31212261   7.265   4.305   3.805  0.3336 -0.9003  0.2543
   89DOPC  H12X12262   7.306   4.337   3.707  1.6491  2.6748  1.8044
   89DOPC  H12Y12263   7.158   4.335   3.803  1.0393  1.8832  0.4466
   89DOPC  C31312264   7.287   4.153   3.817  0.0251 -0.0598 -0.0839
   89DOPC  H13X12265   7.280   4.144   3.928 -0.3384  2.3642  0.1307
   89DOPC  H13Y12266   7.209   4.099   3.759  1.4892 -2.8939  0.3648
   89DOPC  C31412267   7.431   4.111   3.779 -0.0696  0.1117  0.2938
   89DOPC  H14X12268   7.506   4.193   3.783  2.1212 -1.4794 -3.0551
   89DOPC  H14Y12269   7.467   4.038   3.855  2.9330  2.6484  1.5794
   89DOPC  C31512270   7.426   4.057   3.636  0.7812 -0.1105  0.0072
   89DOPC  H15X12271   7.360   4.129   3.583 -0.2497 -1.9979 -1.3629
   89DOPC  H15Y12272   7.374   3.959   3.640  1.9910 -0.7279  1.6302
   89DOPC  C31612273   7.561   4.075   3.552 -1.0430 -0.0020  0.1286
   89DOPC  H16X12274   7.629   4.005   3.605 -0.0738  0.5274 -0.3965
   89DOPC  H16Y12275   7.549   4.037   3.449 -0.3044  1.4012 -0.5022
   89DOPC  C31712276   7.621   4.216   3.558 -0.4414  0.4875  0.6467
   89DOPC  H17X12277   7.546   4.286   3.516 -0.7380 -1.1992 -1.8767
   89DOPC  H17Y12278   7.646   4.228   3.665  1.6455  0.4386  0.2124
   89DOPC  C31812279   7.752   4.220   3.465  0.4148  0.1719 -1.0473
   89DOPC  H18X12280   7.723   4.230   3.358 -1.3523  1.2292 -0.4999
   89DOPC  H18Y12281   7.814   4.308   3.492  0.1434  0.7851 -2.3256
   89DOPC  H18Z12282   7.824   4.136   3.480  0.2586  0.0649 -0.9001
   90DOPC     N12283   2.672   5.110   5.129 -0.2400 -0.0343 -0.0910
   90DOPC   C1212284   2.720   5.017   5.022 -0.5135 -0.1297  0.1394
   90DOPC  H12A12285   2.690   5.057   4.927 -2.4635 -2.4884 -0.3198
   90DOPC  H12B12286   2.686   4.916   5.035  1.5238 -0.8455  0.2873
   90DOPC   C1312287   2.523   5.113   5.127  1.1464 -0.7013 -0.1955
   90DOPC  H13A12288   2.485   5.141   5.030 -1.8206 -0.2941  0.9647
   90DOPC  H13B12289   2.483   5.017   5.155  0.4834 -0.3931 -0.0611
   90DOPC  H13C12290   2.474   5.191   5.184 -1.8361  0.6284 -4.1694
   90DOPC   C1412291   2.721   5.243   5.104 -0.1309 -0.3545 -0.0991
   90DOPC  H14A12292   2.826   5.252   5.127 -0.4453  0.2845  1.1665
   90DOPC  H14B12293   2.703   5.272   5.001 -0.6731  2.1433  0.6553
   90DOPC  H14C12294   2.665   5.311   5.166  3.9308  0.8142  2.7167
   90DOPC   C1512295   2.705   5.056   5.266  0.0951  0.3080 -0.2037
   90DOPC  H15A12296   2.660   4.960   5.288  0.1418  0.3145 -0.0824
   90DOPC  H15B12297   2.678   5.119   5.349 -2.7789 -0.5849 -0.3680
   90DOPC  H15C12298   2.812   5.044   5.272 -0.0696 -0.5442  1.6494
   90DOPC   C1112299   2.872   4.996   5.033 -0.0800  0.3776  0.0053
   90DOPC  H11A12300   2.914   4.983   4.930 -1.9433  1.1538 -0.8987
   90DOPC  H11B12301   2.921   5.093   5.058  1.0993  0.4436 -2.2451
   90DOPC     P12302   2.864   4.745   5.108 -0.0812 -0.1150  0.1497
   90DOPC   O1312303   2.719   4.735   5.066  0.1494  0.2883  0.0316
   90DOPC   O1412304   2.907   4.673   5.227  1.1177  0.4845 -0.0596
   90DOPC   O1212305   2.905   4.897   5.131 -0.0315 -0.4653  0.2461
   90DOPC   O1112306   2.947   4.695   4.983 -0.6725  0.1883 -0.2532
   90DOPC    C112307   2.883   4.674   4.863 -0.0757 -0.1426  1.2381
   90DOPC    HA12308   2.827   4.762   4.825 -0.3917 -1.9797 -3.1862
   90DOPC    HB12309   2.814   4.588   4.878  0.3904 -0.3107  2.5092
   90DOPC    C212310   2.974   4.628   4.746  0.6975  0.0589  0.0268
   90DOPC    HS12311   3.002   4.524   4.773  1.1467 -0.2937 -1.6355
   90DOPC   O2112312   3.096   4.704   4.731 -0.0227 -0.1961  0.2062
   90DOPC   C2112313   3.210   4.642   4.713  0.4853 -0.5579  0.0692
   90DOPC   O2212314   3.222   4.521   4.716  0.0637 -0.4244  0.7312
   90DOPC   C2212315   3.316   4.753   4.684 -0.5120 -0.0433 -0.2716
   90DOPC   H2R12316   3.324   4.817   4.775 -0.1107 -0.8337  0.2655
   90DOPC   H2S12317   3.282   4.816   4.599  1.2358  2.5974  0.8225
   90DOPC    C312318   2.888   4.629   4.621  0.5591 -0.4023  0.1792
   90DOPC    HX12319   2.867   4.734   4.591  0.4990 -0.7432 -1.0392
   90DOPC    HY12320   2.786   4.586   4.633  0.7640 -0.7657  0.6506
   90DOPC   O3112321   2.954   4.579   4.505  0.5607  0.2145  0.3217
   90DOPC   C3112322   2.954   4.443   4.507 -0.6145  0.1646 -0.0066
   90DOPC   O3212323   2.891   4.371   4.576 -1.0031 -0.3035 -0.0388
   90DOPC   C3212324   3.036   4.400   4.389  0.4434  0.6072  0.6132
   90DOPC   H2X12325   3.084   4.301   4.403  0.8568  0.4952 -1.3309
   90DOPC   H2Y12326   2.961   4.388   4.307  0.4232  3.8972  0.0441
   90DOPC   C2312327   3.453   4.690   4.650  0.5031 -0.2147  0.1656
   90DOPC   H3R12328   3.448   4.626   4.559 -0.0023  1.3654 -0.9563
   90DOPC   H3S12329   3.486   4.640   4.744 -0.0687  3.9380  2.8350
   90DOPC   C2412330   3.559   4.806   4.636  0.3584  0.1043  0.5592
   90DOPC   H4R12331   3.659   4.759   4.624 -0.5199 -1.2718 -2.2430
   90DOPC   H4S12332   3.562   4.849   4.738  0.8056 -2.0788  1.4980
   90DOPC   C2512333   3.548   4.912   4.520  0.5865 -0.2234 -0.4061
   90DOPC   H5R12334   3.468   4.873   4.453 -0.4127 -1.6056  1.5052
   90DOPC   H5S12335   3.637   4.917   4.454 -0.2699  1.1797 -1.5364
   90DOPC   C2612336   3.518   5.058   4.563 -0.0644  0.2411 -0.6035
   90DOPC   H6R12337   3.599   5.102   4.626  0.9750 -1.2205 -0.8609
   90DOPC   H6S12338   3.428   5.052   4.627  1.2602  0.0854  1.3495
   90DOPC   C2712339   3.510   5.157   4.448  0.0402  0.0090  0.7667
   90DOPC   H7R12340   3.425   5.135   4.380  0.7710  0.8592 -0.4605
   90DOPC   H7S12341   3.602   5.164   4.386 -1.4952 -1.5563 -1.8955
   90DOPC   C2812342   3.463   5.302   4.487 -0.6584  0.8781  0.2931
   90DOPC   H8R12343   3.365   5.297   4.540 -0.5564  1.2370  0.5170
   90DOPC   H8S12344   3.456   5.355   4.389  1.3851 -2.3298 -1.7684
   90DOPC   C2912345   3.553   5.360   4.590 -0.2550 -0.2560 -0.3812
   90DOPC   H9R12346   3.512   5.322   4.685  0.0524  1.0120  0.2718
   90DOPC  C21012347   3.658   5.443   4.577 -0.0422 -0.5850 -0.4388
   90DOPC  H10R12348   3.709   5.479   4.667  0.5826 -1.5976 -0.3737
   90DOPC  C21112349   3.739   5.465   4.448  0.1464 -0.0918 -0.3338
   90DOPC  H11R12350   3.700   5.409   4.361 -1.3562  0.2297  0.0904
   90DOPC  H11S12351   3.843   5.428   4.462  0.9324  1.3624 -1.8713
   90DOPC  C21212352   3.740   5.617   4.416 -0.1882  0.0592 -0.9233
   90DOPC  H12R12353   3.782   5.672   4.503  0.0859 -0.5593 -0.6628
   90DOPC  H12S12354   3.635   5.652   4.413 -0.6629 -0.7185  2.4666
   90DOPC  C21312355   3.817   5.647   4.288  0.0330  0.1347  0.0264
   90DOPC  H13R12356   3.748   5.632   4.203 -1.6247  0.5554  1.2556
   90DOPC  H13S12357   3.903   5.577   4.273  0.3800  0.5374  0.1141
   90DOPC  C21412358   3.883   5.786   4.284  0.8046 -0.0631 -0.8874
   90DOPC  H14R12359   3.938   5.806   4.378  0.6947  2.2506 -1.2604
   90DOPC  H14S12360   3.798   5.857   4.274 -0.9261 -1.5516  1.9534
   90DOPC  C21512361   3.990   5.798   4.165  0.0418  0.2271 -0.7430
   90DOPC  H15R12362   3.936   5.790   4.068  0.2391 -0.7314 -0.7826
   90DOPC  H15S12363   4.070   5.722   4.161  1.0450  1.2495 -0.6698
   90DOPC  C21612364   4.059   5.931   4.168 -0.4405  0.4768  0.7758
   90DOPC  H16R12365   4.168   5.915   4.155 -1.2398 -4.5217 -2.5270
   90DOPC  H16S12366   4.040   5.992   4.259  0.0625  0.4629  0.8895
   90DOPC  C21712367   4.021   6.025   4.055  0.3806  0.2705  0.5114
   90DOPC  H17R12368   3.910   6.032   4.051  0.3692 -0.1236  0.0664
   90DOPC  H17S12369   4.047   5.981   3.956 -0.2737  1.2360 -0.1134
   90DOPC  C21812370   4.087   6.164   4.071  0.4156  0.5171  0.2300
   90DOPC  H18R12371   4.197   6.154   4.065  0.2192 -1.6819 -1.4797
   90DOPC  H18S12372   4.058   6.206   4.169 -0.3564  1.1262 -0.2378
   90DOPC  H18T12373   4.052   6.229   3.988 -0.7478 -0.0664  0.2412
   90DOPC   C3312374   3.143   4.491   4.333  0.2163  0.4119 -0.2120
   90DOPC   H3X12375   3.213   4.509   4.417 -0.1133  0.5300  0.0395
   90DOPC   H3Y12376   3.098   4.584   4.293 -0.5716 -0.9059 -2.5700
   90DOPC   C3412377   3.230   4.422   4.230  0.0778 -0.0742  0.0738
   90DOPC   H4X12378   3.264   4.322   4.263  0.5244 -1.2839 -3.5655
   90DOPC   H4Y12379   3.313   4.482   4.187 -1.4288  0.1861 -2.7099
   90DOPC   C3512380   3.154   4.389   4.096 -0.1875  0.5737 -0.3071
   90DOPC   H5X12381   3.117   4.484   4.050 -2.3667  0.8794  1.8341
   90DOPC   H5Y12382   3.067   4.325   4.122  0.0821  0.0155 -0.7688
   90DOPC   C3612383   3.242   4.306   4.001  0.6796 -0.3399  0.4396
   90DOPC   H6X12384   3.306   4.230   4.050 -0.7775 -1.2314  1.0271
   90DOPC   H6Y12385   3.171   4.239   3.948  0.8914  0.1017 -0.4158
   90DOPC   C3712386   3.321   4.388   3.892  0.9775  0.0667 -0.1076
   90DOPC   H7X12387   3.246   4.427   3.820  1.2390 -0.2568 -0.5552
   90DOPC   H7Y12388   3.370   4.473   3.943  1.1004  0.2440 -0.5272
   90DOPC   C3812389   3.419   4.290   3.822  0.2816 -0.1983  1.0493
   90DOPC   H8X12390   3.359   4.201   3.797  0.4867  0.1778 -0.9663
   90DOPC   H8Y12391   3.484   4.241   3.897  1.2333 -0.3463  0.1642
   90DOPC   C3912392   3.493   4.341   3.700  0.2964  0.2051 -0.2376
   90DOPC   H9X12393   3.583   4.398   3.729 -0.0126 -0.0339  1.3081
   90DOPC  C31012394   3.472   4.309   3.571 -0.6736  0.7187  0.1860
   90DOPC  H10X12395   3.545   4.343   3.497 -2.2508  1.1612 -1.2265
   90DOPC  C31112396   3.371   4.216   3.507 -0.1246  0.2528  0.8715
   90DOPC  H11X12397   3.344   4.128   3.569 -0.6841 -1.3789 -1.5524
   90DOPC  H11Y12398   3.414   4.146   3.432  0.0927 -0.8095  1.9594
   90DOPC  C31212399   3.239   4.270   3.459  0.6924  0.0157  0.0049
   90DOPC  H12X12400   3.257   4.329   3.366  0.0531 -0.9189 -0.7222
   90DOPC  H12Y12401   3.203   4.337   3.540  1.7799  0.1710  0.3808
   90DOPC  C31312402   3.141   4.157   3.445  0.8182  0.5582  0.7201
   90DOPC  H13X12403   3.164   4.095   3.357 -0.7263  2.0207 -0.8038
   90DOPC  H13Y12404   3.153   4.099   3.539  1.1687  0.8556  0.8607
   90DOPC  C31412405   2.999   4.194   3.430  0.4795  0.3111  0.5598
   90DOPC  H14X12406   2.972   4.258   3.517 -0.7471  0.1900  0.2832
   90DOPC  H14Y12407   2.979   4.236   3.329  2.9520  1.4018  0.4448
   90DOPC  C31512408   2.903   4.068   3.442 -0.0798 -0.1897  0.7698
   90DOPC  H15X12409   2.943   4.003   3.523  2.7334  1.0227  0.4549
   90DOPC  H15Y12410   2.915   4.007   3.351 -1.6792  1.4400 -0.6118
   90DOPC  C31612411   2.757   4.088   3.457  0.1083  0.4780 -0.9409
   90DOPC  H16X12412   2.752   4.174   3.527  0.0586 -0.0756 -0.2495
   90DOPC  H16Y12413   2.721   4.118   3.357  1.6717  0.9773 -1.3794
   90DOPC  C31712414   2.681   3.967   3.505  0.0891 -0.2132  0.2966
   90DOPC  H17X12415   2.708   3.955   3.612 -0.2066 -0.4333  0.3463
   90DOPC  H17Y12416   2.572   3.980   3.491  0.4166  1.7525 -0.7894
   90DOPC  C31812417   2.722   3.841   3.435 -0.6782  0.9890  0.3380
   90DOPC  H18X12418   2.696   3.847   3.327  1.3345  0.6429 -0.2004
   90DOPC  H18Y12419   2.832   3.829   3.432 -0.6604  0.8535  1.3641
   90DOPC  H18Z12420   2.671   3.751   3.477 -1.5955  1.8122  1.0405
   91DOPC     N12421   5.795   4.328   5.319  0.4187  0.5296  0.5089
   91DOPC   C1212422   5.649   4.381   5.315  0.2140  0.0539 -0.6151
   91DOPC  H12A12423   5.648   4.481   5.273 -3.1808  0.3883 -0.0705
   91DOPC  H12B12424   5.616   4.390   5.418  1.3369 -1.1524 -0.1246
   91DOPC   C1312425   5.885   4.414   5.402 -0.3537  0.4518  0.3872
   91DOPC  H13A12426   5.987   4.378   5.404 -0.4887  0.0884  2.0510
   91DOPC  H13B12427   5.879   4.515   5.364  2.0521  0.3673 -0.3770
   91DOPC  H13C12428   5.845   4.408   5.502  2.0972  1.2916  1.4925
   91DOPC   C1412429   5.855   4.309   5.180 -0.0992  0.0135 -0.3917
   91DOPC  H14A12430   5.886   4.408   5.151  1.2039 -0.8884 -2.2318
   91DOPC  H14B12431   5.943   4.247   5.178  1.7415  2.4985 -0.3658
   91DOPC  H14C12432   5.786   4.279   5.102 -0.8271 -2.7284  1.1592
   91DOPC   C1512433   5.793   4.196   5.383  0.1718 -0.6694  0.0510
   91DOPC  H15A12434   5.891   4.151   5.388  1.5081  2.1446  0.7791
   91DOPC  H15B12435   5.718   4.142   5.327 -4.1873  3.2645  1.4375
   91DOPC  H15C12436   5.754   4.197   5.483  1.8969  0.7933  0.7491
   91DOPC   C1112437   5.553   4.302   5.224  0.2387 -0.0990 -0.5039
   91DOPC  H11A12438   5.467   4.364   5.193  1.8740  1.3784 -2.3548
   91DOPC  H11B12439   5.603   4.276   5.129  2.4843 -0.9298  0.8142
   91DOPC     P12440   5.477   4.045   5.212 -0.1844 -0.1681 -0.0824
   91DOPC   O1312441   5.362   3.990   5.286 -0.0467 -0.2216 -0.0470
   91DOPC   O1412442   5.601   3.962   5.212  0.0328 -0.1567 -0.1199
   91DOPC   O1212443   5.514   4.181   5.289  0.3634  0.1536  0.2729
   91DOPC   O1112444   5.438   4.089   5.067 -0.2308  0.3559  0.5958
   91DOPC    C112445   5.310   4.132   5.027 -0.5925 -0.7419  0.7011
   91DOPC    HA12446   5.314   4.239   4.996  0.4758 -0.4358  1.8041
   91DOPC    HB12447   5.235   4.122   5.108  0.0802 -2.4514  1.1484
   91DOPC    C212448   5.258   4.057   4.898  0.3804 -0.0868 -0.9420
   91DOPC    HS12449   5.156   4.094   4.875 -1.0077 -3.1652 -0.2615
   91DOPC   O2112450   5.249   3.919   4.924 -0.3143 -0.1403  0.0900
   91DOPC   C2112451   5.156   3.884   5.015 -0.2952 -0.0563 -0.9939
   91DOPC   O2212452   5.063   3.955   5.054 -0.2439 -0.5037  0.1591
   91DOPC   C2212453   5.195   3.748   5.064  0.5780  0.0417 -0.3261
   91DOPC   H2R12454   5.158   3.728   5.167 -0.7146  1.0176 -0.5717
   91DOPC   H2S12455   5.306   3.740   5.062  0.4549 -2.0355 -1.0244
   91DOPC    C312456   5.348   4.078   4.765  0.2399  1.2248  0.7484
   91DOPC    HX12457   5.294   4.015   4.691 -2.3251 -0.0766  3.4957
   91DOPC    HY12458   5.438   4.017   4.783 -0.7788 -1.0389 -1.2187
   91DOPC   O3112459   5.372   4.218   4.722 -0.2326 -0.4122  0.6500
   91DOPC   C3112460   5.493   4.267   4.744 -0.3196 -0.7607  0.4453
   91DOPC   O3212461   5.587   4.203   4.785  0.2393  0.0902  0.2635
   91DOPC   C3212462   5.507   4.422   4.704 -0.4228  0.9618 -0.0381
   91DOPC   H2X12463   5.430   4.444   4.628  0.5757 -0.0146 -1.3605
   91DOPC   H2Y12464   5.504   4.489   4.794  3.4011  0.9478  0.2787
   91DOPC   C2312465   5.144   3.630   4.968  0.0467 -0.2701 -0.5027
   91DOPC   H3R12466   5.174   3.537   5.021  0.0746  0.7014  1.2741
   91DOPC   H3S12467   5.199   3.643   4.872  1.9527 -0.6877  0.4902
   91DOPC   C2412468   4.998   3.630   4.939  0.3035  0.4194 -0.3417
   91DOPC   H4R12469   4.958   3.720   4.886 -0.9541  0.4968  0.6692
   91DOPC   H4S12470   4.939   3.628   5.033 -0.1349  2.8509 -0.4997
   91DOPC   C2512471   4.965   3.507   4.855  0.4119  0.2187 -0.2656
   91DOPC   H5R12472   4.864   3.514   4.809  0.4088  0.3630 -0.2357
   91DOPC   H5S12473   4.964   3.421   4.926  0.6832 -0.0476 -0.5771
   91DOPC   C2612474   5.062   3.481   4.737  0.0247  0.0838 -0.2730
   91DOPC   H6R12475   5.167   3.468   4.773 -0.1869 -0.7851  0.0682
   91DOPC   H6S12476   5.066   3.572   4.674  0.2573  1.6319  1.8504
   91DOPC   C2712477   5.044   3.352   4.660  0.2460  0.6456 -0.0796
   91DOPC   H7R12478   5.035   3.259   4.720 -0.0332 -0.1285 -1.2861
   91DOPC   H7S12479   5.127   3.334   4.589  0.7612 -0.1822  0.7097
   91DOPC   C2812480   4.909   3.354   4.589 -0.1054  0.2337 -0.1594
   91DOPC   H8R12481   4.833   3.390   4.662 -0.5576 -2.6131  0.9193
   91DOPC   H8S12482   4.883   3.249   4.562  0.7803  0.1858 -0.8609
   91DOPC   C2912483   4.915   3.441   4.463  0.3701 -0.4686 -0.1349
   91DOPC   H9R12484   4.996   3.411   4.395  1.4732  2.7088 -0.3725
   91DOPC  C21012485   4.833   3.547   4.431 -0.7743 -0.1560  0.1631
   91DOPC  H10R12486   4.849   3.609   4.342 -0.4223  0.0903  0.3932
   91DOPC  C21112487   4.711   3.589   4.515 -0.0626  0.2020  0.7673
   91DOPC  H11R12488   4.727   3.662   4.597 -0.7469  1.8201 -0.4726
   91DOPC  H11S12489   4.660   3.503   4.562 -0.2405  1.2285  2.5342
   91DOPC  C21212490   4.608   3.647   4.423  0.1303 -0.5086 -0.2084
   91DOPC  H12R12491   4.600   3.600   4.323 -1.3518  0.3145 -0.4962
   91DOPC  H12S12492   4.626   3.754   4.401 -0.3471 -0.9476 -3.1159
   91DOPC  C21312493   4.472   3.652   4.487  0.3513 -0.7008 -0.2714
   91DOPC  H13R12494   4.491   3.696   4.588 -1.0143 -0.6088 -0.0443
   91DOPC  H13S12495   4.430   3.552   4.511  0.6332 -0.6106  0.6649
   91DOPC  C21412496   4.370   3.750   4.422  0.6697  0.1084  0.1031
   91DOPC  H14R12497   4.349   3.720   4.317 -0.4218  0.1745  0.2843
   91DOPC  H14S12498   4.417   3.850   4.431 -0.1735  0.4680  0.6717
   91DOPC  C21512499   4.231   3.770   4.496  0.2381 -0.3087 -0.0968
   91DOPC  H15R12500   4.248   3.815   4.596 -0.8496  1.1660 -0.5243
   91DOPC  H15S12501   4.191   3.668   4.514  1.6045 -0.4755  2.3549
   91DOPC  C21612502   4.115   3.839   4.423 -0.3155 -0.0736  0.1650
   91DOPC  H16R12503   4.028   3.857   4.490  0.1354  1.7481  0.3037
   91DOPC  H16S12504   4.090   3.777   4.334 -1.5699 -0.6981  0.9279
   91DOPC  C21712505   4.158   3.981   4.380  0.4005 -0.0600 -0.2009
   91DOPC  H17R12506   4.233   3.982   4.299  1.7228 -1.9200  0.9090
   91DOPC  H17S12507   4.211   4.031   4.465  2.5774  2.3212 -2.7531
   91DOPC  C21812508   4.037   4.068   4.341 -0.0331  0.3191  0.2998
   91DOPC  H18R12509   3.946   4.054   4.403 -1.7138  1.1093 -1.8825
   91DOPC  H18S12510   4.014   4.044   4.235  0.4444  0.1130  0.2376
   91DOPC  H18T12511   4.059   4.176   4.327 -1.0230  0.2538 -2.3225
   91DOPC   C3312512   5.642   4.447   4.643  0.0636 -0.1150  0.2427
   91DOPC   H3X12513   5.669   4.374   4.564  3.3732  2.2429 -1.0004
   91DOPC   H3Y12514   5.712   4.446   4.729 -2.6514  5.9871  3.1110
   91DOPC   C3412515   5.644   4.583   4.575  0.6370 -0.6259  0.0195
   91DOPC   H4X12516   5.621   4.664   4.648 -0.4919 -0.3001 -0.6873
   91DOPC   H4Y12517   5.572   4.593   4.492  0.7629  2.9399  0.1773
   91DOPC   C3512518   5.781   4.611   4.511  0.5569  0.8092  0.8383
   91DOPC   H5X12519   5.855   4.542   4.556  2.0670  1.8588  0.0657
   91DOPC   H5Y12520   5.816   4.713   4.537 -0.0868  1.0297  0.8737
   91DOPC   C3612521   5.788   4.599   4.354 -0.0836  0.0332 -0.0339
   91DOPC   H6X12522   5.891   4.581   4.315  0.1798  0.2804  0.5288
   91DOPC   H6Y12523   5.734   4.506   4.327 -1.6698 -0.0723  3.0148
   91DOPC   C3712524   5.725   4.724   4.297 -0.2938 -0.3347  0.3989
   91DOPC   H7X12525   5.620   4.738   4.331 -0.0116 -0.1879  1.2437
   91DOPC   H7Y12526   5.780   4.819   4.316 -0.0692 -0.1906 -0.8793
   91DOPC   C3812527   5.715   4.714   4.143 -0.1423  0.0459  0.2622
   91DOPC   H8X12528   5.651   4.801   4.116 -2.0279 -1.5596 -0.6943
   91DOPC   H8Y12529   5.655   4.623   4.122 -0.2031  0.2695 -0.5759
   91DOPC   C3912530   5.853   4.713   4.069  0.6298  0.0598 -0.1528
   91DOPC   H9X12531   5.906   4.799   4.112 -0.5656  0.3267  0.8466
   91DOPC  C31012532   5.914   4.631   3.980  0.1985 -0.4450  0.6872
   91DOPC  H10X12533   6.021   4.643   3.956  0.1888 -3.2778 -1.1826
   91DOPC  C31112534   5.853   4.507   3.923 -0.3294  0.1978 -0.3204
   91DOPC  H11X12535   5.830   4.536   3.818 -0.7778 -0.2713 -0.3505
   91DOPC  H11Y12536   5.762   4.479   3.980  0.3604  0.6036  1.0234
   91DOPC  C31212537   5.944   4.377   3.918  0.5061 -0.4177 -0.2793
   91DOPC  H12X12538   6.041   4.386   3.864  1.4889 -2.8245  0.9646
   91DOPC  H12Y12539   5.889   4.310   3.849 -0.5982 -0.1340  0.3033
   91DOPC  C31312540   5.963   4.295   4.047 -0.0355 -0.2687  0.4852
   91DOPC  H13X12541   6.012   4.357   4.126 -2.8483  1.3632  1.1041
   91DOPC  H13Y12542   5.862   4.277   4.089 -1.2028  1.8993 -1.1323
   91DOPC  C31412543   6.054   4.175   4.017  0.1467 -0.3620 -0.0084
   91DOPC  H14X12544   6.136   4.208   3.949  1.9223 -1.2653  1.5930
   91DOPC  H14Y12545   6.109   4.136   4.105 -0.2259 -1.8688 -0.4156
   91DOPC  C31512546   5.980   4.053   3.951 -0.4753  0.2063 -0.5514
   91DOPC  H15X12547   5.924   4.071   3.858 -0.8311 -1.7535 -0.7588
   91DOPC  H15Y12548   5.900   4.025   4.023  2.5515  0.5665  3.3537
   91DOPC  C31612549   6.066   3.934   3.914 -0.0955  0.3645  0.4966
   91DOPC  H16X12550   6.153   3.965   3.851  0.7415 -1.7346  0.5491
   91DOPC  H16Y12551   6.106   3.896   4.011 -2.2882 -2.6877  0.3400
   91DOPC  C31712552   5.978   3.829   3.853  0.0088  0.3711  0.1347
   91DOPC  H17X12553   5.897   3.788   3.917 -0.0963 -1.2708 -0.9751
   91DOPC  H17Y12554   5.932   3.876   3.763  1.6717  3.4849  0.7847
   91DOPC  C31812555   6.056   3.712   3.796  0.0168  1.1477 -0.3558
   91DOPC  H18X12556   5.987   3.631   3.763 -0.1599  2.1006 -2.5091
   91DOPC  H18Y12557   6.119   3.758   3.717 -1.2011  1.3836 -1.2301
   91DOPC  H18Z12558   6.121   3.670   3.876 -0.5826 -1.4288 -1.0989
   92DOPC     N12559   0.209   4.264   5.517  0.7140 -0.4176 -0.1903
   92DOPC   C1212560   0.273   4.370   5.594  0.6025  0.2139 -0.4357
   92DOPC  H12A12561   0.381   4.366   5.596  0.5977  0.2329  1.3967
   92DOPC  H12B12562   0.249   4.359   5.699  2.0058 -2.6576 -0.3209
   92DOPC   C1312563   0.267   4.127   5.550 -0.0374  0.5688  0.5316
   92DOPC  H13A12564   0.205   4.056   5.497 -1.2538  0.2311  2.3319
   92DOPC  H13B12565   0.369   4.121   5.516 -0.6546 -2.0891 -1.1597
   92DOPC  H13C12566   0.257   4.100   5.654 -1.3160 -0.8074  0.0902
   92DOPC   C1412567   0.238   4.289   5.371 -0.4561 -0.2252 -0.4799
   92DOPC  H14A12568   0.214   4.388   5.334 -1.3001  0.6338  2.1184
   92DOPC  H14B12569   0.338   4.257   5.348 -0.9942 -1.5922 -1.0494
   92DOPC  H14C12570   0.170   4.224   5.317 -1.2298  0.0763  0.1005
   92DOPC   C1512571   0.058   4.263   5.541 -0.4622 -0.2001  0.3426
   92DOPC  H15A12572   0.002   4.195   5.479  2.6378 -1.5828 -1.1292
   92DOPC  H15B12573   0.026   4.365   5.528 -0.0523 -0.0986  0.1193
   92DOPC  H15C12574   0.042   4.239   5.645  0.0545  0.1147  0.4966
   92DOPC   C1112575   0.226   4.519   5.552 -0.0485 -0.2946 -1.0451
   92DOPC  H11A12576   0.117   4.521   5.531 -0.1050  1.4045 -0.7141
   92DOPC  H11B12577   0.236   4.579   5.645  0.6624  0.8149 -1.8169
   92DOPC     P12578   0.440   4.647   5.457  0.4809 -0.0555  0.3095
   92DOPC   O1312579   0.519   4.577   5.555  0.1138 -0.0080 -0.5522
   92DOPC   O1412580   0.410   4.792   5.478 -0.8406 -0.3514  0.5192
   92DOPC   O1212581   0.301   4.570   5.444  0.1789 -0.4103  0.0218
   92DOPC   O1112582   0.484   4.621   5.306 -0.4091 -0.2474  0.3261
   92DOPC    C112583   0.450   4.501   5.235 -0.8466  0.1281  1.1386
   92DOPC    HA12584   0.349   4.517   5.193 -0.5590 -4.0446 -1.7036
   92DOPC    HB12585   0.446   4.414   5.303 -0.8474 -0.1716  0.7575
   92DOPC    C212586   0.546   4.463   5.119  0.1552  0.3421 -0.6334
   92DOPC    HS12587   0.636   4.415   5.165  2.2592  1.0380 -3.7187
   92DOPC   O2112588   0.578   4.584   5.045 -0.1121 -0.6335 -0.1439
   92DOPC   C2112589   0.700   4.574   4.987  0.1898 -0.2877  0.6092
   92DOPC   O2212590   0.785   4.491   4.996 -0.1484 -0.0430 -0.4331
   92DOPC   C2212591   0.728   4.702   4.906 -0.1358  0.6203 -0.4129
   92DOPC   H2R12592   0.781   4.765   4.981 -1.1462 -1.3277  2.0885
   92DOPC   H2S12593   0.636   4.754   4.875 -1.4113  0.2121  2.3354
   92DOPC    C312594   0.471   4.366   5.028 -1.1927  0.0693 -0.0107
   92DOPC    HX12595   0.389   4.426   4.983  0.2013  1.4789 -0.7321
   92DOPC    HY12596   0.414   4.286   5.080  1.5834 -2.8114 -1.0601
   92DOPC   O3112597   0.544   4.305   4.922 -0.0896 -0.0818 -0.2030
   92DOPC   C3112598   0.625   4.204   4.975 -0.0586  0.1061  0.4646
   92DOPC   O3212599   0.641   4.173   5.092  0.2321  0.2304 -0.3007
   92DOPC   C3212600   0.705   4.145   4.863  0.2639  0.0139  0.4703
   92DOPC   H2X12601   0.650   4.150   4.767  0.1167  2.0783  0.6241
   92DOPC   H2Y12602   0.800   4.200   4.846  0.6438 -0.6450  0.3916
   92DOPC   C2312603   0.817   4.674   4.783  0.4020 -0.2236  0.6808
   92DOPC   H3R12604   0.915   4.629   4.810  1.0232  0.2286 -0.7442
   92DOPC   H3S12605   0.837   4.774   4.739  0.5476 -0.1859  0.8309
   92DOPC   C2412606   0.746   4.597   4.665  0.1903 -0.0663 -0.0968
   92DOPC   H4R12607   0.774   4.653   4.573 -1.2971  1.3258  0.2469
   92DOPC   H4S12608   0.637   4.602   4.682  0.3691  0.7961  0.9127
   92DOPC   C2512609   0.788   4.447   4.658 -0.2900 -0.5135 -0.7903
   92DOPC   H5R12610   0.774   4.395   4.755  2.9342  0.5570  0.3883
   92DOPC   H5S12611   0.895   4.454   4.630  0.3889  2.7314  1.9658
   92DOPC   C2612612   0.695   4.377   4.558 -0.7781 -0.4703 -0.7627
   92DOPC   H6R12613   0.594   4.417   4.579 -0.6534  0.1858 -1.3842
   92DOPC   H6S12614   0.701   4.269   4.585 -3.8822 -0.8093 -1.0486
   92DOPC   C2712615   0.709   4.410   4.411  0.4107  0.4838 -1.2168
   92DOPC   H7R12616   0.816   4.390   4.392  0.5693 -2.2860  1.8826
   92DOPC   H7S12617   0.680   4.517   4.397 -1.1205  0.3561  0.6294
   92DOPC   C2812618   0.629   4.320   4.322 -0.1488  0.3729 -0.3290
   92DOPC   H8R12619   0.523   4.337   4.349 -0.2082  0.1461 -0.4189
   92DOPC   H8S12620   0.641   4.210   4.330 -0.8071  0.1685 -1.7572
   92DOPC   C2912621   0.654   4.353   4.177  0.3748 -0.0321  0.4600
   92DOPC   H9R12622   0.722   4.274   4.141 -1.7789 -2.6424  1.6959
   92DOPC  C21012623   0.613   4.448   4.092  1.1970 -0.1162 -0.2888
   92DOPC  H10R12624   0.649   4.457   3.988  2.2026  1.2434  0.1534
   92DOPC  C21112625   0.522   4.562   4.141 -0.7015  0.7962  0.3775
   92DOPC  H11R12626   0.524   4.553   4.251  3.0230 -1.3697  0.2868
   92DOPC  H11S12627   0.422   4.545   4.096 -0.0029 -0.9791 -0.6212
   92DOPC  C21212628   0.573   4.704   4.108 -0.4418 -0.2728 -0.2388
   92DOPC  H12R12629   0.667   4.724   4.162 -0.5040  0.2601 -0.3224
   92DOPC  H12S12630   0.502   4.774   4.157 -0.2133 -0.5015  0.4242
   92DOPC  C21312631   0.573   4.737   3.958 -0.4475 -0.4195 -0.3002
   92DOPC  H13R12632   0.493   4.685   3.901 -0.3540 -0.0449 -0.7774
   92DOPC  H13S12633   0.675   4.708   3.926 -0.4251 -0.2981 -0.3400
   92DOPC  C21412634   0.565   4.893   3.943 -0.4640  0.3212 -0.2324
   92DOPC  H14R12635   0.642   4.948   4.002 -0.6178 -0.1735  0.4390
   92DOPC  H14S12636   0.467   4.926   3.981 -1.4097 -0.6471 -1.7123
   92DOPC  C21512637   0.574   4.947   3.790  0.2051  0.0242 -0.0776
   92DOPC  H15R12638   0.568   5.058   3.797  0.0563  0.0441 -0.5088
   92DOPC  H15S12639   0.479   4.915   3.742 -0.7517 -0.0272  1.7522
   92DOPC  C21612640   0.693   4.896   3.709  0.5805 -0.7800 -0.2831
   92DOPC  H16R12641   0.688   4.785   3.718 -0.2866 -0.6689  0.7906
   92DOPC  H16S12642   0.788   4.917   3.763  0.5177 -0.0692 -0.4443
   92DOPC  C21712643   0.693   4.946   3.567 -0.3528 -0.0942  0.5321
   92DOPC  H17R12644   0.687   5.057   3.554 -0.1204  0.0007  1.1816
   92DOPC  H17S12645   0.607   4.902   3.512 -1.2406  1.8059  0.2986
   92DOPC  C21812646   0.817   4.898   3.482 -0.6110 -0.2176 -0.4092
   92DOPC  H18R12647   0.787   4.916   3.377  2.7065  0.3124 -1.3750
   92DOPC  H18S12648   0.838   4.791   3.505  0.5243 -0.0014 -0.3666
   92DOPC  H18T12649   0.909   4.956   3.506 -0.5661  0.2323 -1.6050
   92DOPC   C3312650   0.748   3.999   4.889 -0.4483 -0.1205 -0.4804
   92DOPC   H3X12651   0.680   3.943   4.957  1.7073 -0.9480  1.1189
   92DOPC   H3Y12652   0.856   3.991   4.915  0.6198 -0.0437 -4.2832
   92DOPC   C3412653   0.757   3.914   4.757  0.2873  0.8366 -0.3297
   92DOPC   H4X12654   0.654   3.887   4.725 -0.3916  2.3592  0.5299
   92DOPC   H4Y12655   0.805   3.814   4.773  0.3668  0.8623 -0.4004
   92DOPC   C3512656   0.838   3.971   4.640 -0.7715  0.2220 -0.5533
   92DOPC   H5X12657   0.943   3.959   4.676 -0.6246  0.7493 -0.7893
   92DOPC   H5Y12658   0.808   4.076   4.618 -2.4627  0.6277  2.9392
   92DOPC   C3612659   0.822   3.893   4.505  0.1730  0.6955 -0.1412
   92DOPC   H6X12660   0.798   3.786   4.524 -0.4944  1.0053  0.8370
   92DOPC   H6Y12661   0.736   3.924   4.442  0.2651 -1.6669 -1.5473
   92DOPC   C3712662   0.954   3.909   4.419  0.7088 -0.0675  0.2064
   92DOPC   H7X12663   0.978   4.017   4.415  0.6273  0.0832  2.6107
   92DOPC   H7Y12664   1.044   3.861   4.463  1.1654  0.1274 -0.4973
   92DOPC   C3812665   0.941   3.846   4.271  0.0530  0.3309  0.2553
   92DOPC   H8X12666   1.032   3.875   4.213 -0.8956 -2.2832 -2.7826
   92DOPC   H8Y12667   0.860   3.909   4.229 -2.0241 -2.0972  0.3816
   92DOPC   C3912668   0.926   3.692   4.263 -0.2066 -0.2830  0.2610
   92DOPC   H9X12669   0.983   3.630   4.334 -0.1286 -1.5804 -0.8818
   92DOPC  C31012670   0.840   3.631   4.187  0.6124 -0.1202 -0.1608
   92DOPC  H10X12671   0.848   3.521   4.179 -0.3057 -0.4722  2.7315
   92DOPC  C31112672   0.745   3.695   4.083 -0.5614  0.3594 -0.2258
   92DOPC  H11X12673   0.703   3.614   4.021  0.3856 -1.1076  0.9819
   92DOPC  H11Y12674   0.787   3.782   4.028 -1.3190  0.8959  0.0202
   92DOPC  C31212675   0.620   3.753   4.159  0.1959  0.5167 -0.2315
   92DOPC  H12X12676   0.643   3.823   4.243 -0.7599  0.6471 -0.0649
   92DOPC  H12Y12677   0.564   3.666   4.200  1.4067 -1.2391 -2.1272
   92DOPC  C31312678   0.525   3.834   4.066 -0.1246  0.3690  0.1300
   92DOPC  H13X12679   0.502   3.771   3.977 -0.0291 -0.7876  0.9061
   92DOPC  H13Y12680   0.433   3.845   4.126 -0.8338  2.0388 -1.1587
   92DOPC  C31412681   0.572   3.967   4.024 -0.8412 -0.2322 -0.1183
   92DOPC  H14X12682   0.614   4.018   4.114  0.0965 -0.4770 -0.4008
   92DOPC  H14Y12683   0.650   3.961   3.946 -1.3592 -0.9648 -0.5961
   92DOPC  C31512684   0.459   4.057   3.979  0.1492  0.2437  0.3926
   92DOPC  H15X12685   0.390   4.004   3.910 -0.7116 -0.5950  1.8494
   92DOPC  H15Y12686   0.497   4.147   3.924 -0.0152  0.8364  1.2310
   92DOPC  C31612687   0.371   4.115   4.090 -0.9078 -0.0417  0.2179
   92DOPC  H16X12688   0.352   4.026   4.154  1.0446 -0.9022 -0.3351
   92DOPC  H16Y12689   0.439   4.180   4.148  0.0808 -0.6789 -0.1985
   92DOPC  C31712690   0.233   4.170   4.056 -0.4445  0.3331 -0.7414
   92DOPC  H17X12691   0.247   4.259   3.992 -1.1492  0.0098 -1.3689
   92DOPC  H17Y12692   0.171   4.091   4.006 -3.0408  1.1291  1.0127
   92DOPC  C31812693   0.150   4.211   4.169  0.4736  0.8281 -0.2724
   92DOPC  H18X12694   0.201   4.290   4.228  0.5188  0.5987 -0.0033
   92DOPC  H18Y12695   0.046   4.251   4.160 -0.1694 -0.1949  1.8373
   92DOPC  H18Z12696   0.147   4.122   4.235 -1.5203  0.4031 -0.8673
   93DOPC     N12697   6.215   7.464   5.000 -0.0252  0.2236  0.0357
   93DOPC   C1212698   6.067   7.508   4.976 -0.0563  0.3666  0.3325
   93DOPC  H12A12699   6.015   7.433   4.918 -2.9833  1.6710  1.1242
   93DOPC  H12B12700   6.075   7.601   4.922 -0.4002  0.4118  0.3616
   93DOPC   C1312701   6.277   7.551   5.107 -0.0824  0.1416 -0.3225
   93DOPC  H13A12702   6.213   7.535   5.193  0.1069 -1.0392 -0.3820
   93DOPC  H13B12703   6.376   7.525   5.141  0.1510  0.3487 -0.8333
   93DOPC  H13C12704   6.277   7.648   5.059  0.0450 -0.6727 -2.0128
   93DOPC   C1412705   6.296   7.465   4.876  0.1192 -0.1353  0.2065
   93DOPC  H14A12706   6.399   7.445   4.903  0.1738  1.8790  1.6497
   93DOPC  H14B12707   6.260   7.394   4.802  0.2639  0.4280 -0.4208
   93DOPC  H14C12708   6.294   7.563   4.831 -1.1922  0.0587  0.6413
   93DOPC   C1512709   6.211   7.323   5.053 -0.0236 -0.7623 -0.3842
   93DOPC  H15A12710   6.161   7.322   5.149 -3.4452 -1.0907 -2.0146
   93DOPC  H15B12711   6.312   7.288   5.061 -0.0872 -0.5943  1.5151
   93DOPC  H15C12712   6.161   7.251   4.990 -0.6565 -1.7003  1.1277
   93DOPC   C1112713   5.971   7.540   5.090  0.2742  0.7374 -0.0906
   93DOPC  H11A12714   5.873   7.572   5.048  0.6221  2.4297  0.3350
   93DOPC  H11B12715   5.963   7.461   5.168 -0.2127 -0.8585 -1.6713
   93DOPC     P12716   6.025   7.794   5.094  0.3972 -0.3683  0.1290
   93DOPC   O1312717   6.165   7.830   5.067  0.3110  0.1599 -0.6074
   93DOPC   O1412718   5.950   7.890   5.177 -0.0769 -0.3498 -0.1549
   93DOPC   O1212719   6.012   7.649   5.165 -0.1902  0.1442 -0.0515
   93DOPC   O1112720   5.962   7.765   4.950  0.2419 -0.0914 -0.2889
   93DOPC    C112721   5.949   7.881   4.863 -1.0695 -0.3101  0.8188
   93DOPC    HA12722   6.045   7.936   4.860 -2.3021  2.2074  2.8917
   93DOPC    HB12723   5.872   7.948   4.908 -1.6320 -0.1610 -0.3327
   93DOPC    C212724   5.912   7.847   4.711 -0.0073  0.2061  0.7141
   93DOPC    HS12725   5.834   7.768   4.722 -0.9886  1.2299  1.2353
   93DOPC   O2112726   6.024   7.806   4.633 -0.0069 -0.5574  0.0270
   93DOPC   C2112727   6.054   7.673   4.633 -0.1356 -0.0188 -0.3021
   93DOPC   O2212728   5.987   7.582   4.673 -0.9099 -0.3282  0.2462
   93DOPC   C2212729   6.188   7.653   4.562 -0.8520 -0.6415 -0.0466
   93DOPC   H2R12730   6.272   7.667   4.633 -0.0574  0.4751 -1.1673
   93DOPC   H2S12731   6.192   7.732   4.484  1.5661 -1.4726 -0.8564
   93DOPC    C312732   5.846   7.967   4.643  0.3654  0.2164 -0.0935
   93DOPC    HX12733   5.933   8.030   4.617 -0.1255  0.4629 -1.1698
   93DOPC    HY12734   5.798   8.031   4.720  1.8150  1.2098  0.0214
   93DOPC   O3112735   5.756   7.930   4.538  0.0915  0.1024  0.4753
   93DOPC   C3112736   5.736   8.029   4.450  0.1060 -0.2701 -0.5133
   93DOPC   O3212737   5.801   8.134   4.442 -0.2405  0.1405 -0.5685
   93DOPC   C3212738   5.618   8.000   4.353  0.8508 -0.0350  0.0130
   93DOPC   H2X12739   5.526   7.989   4.413 -0.1075  0.5960 -1.2901
   93DOPC   H2Y12740   5.598   8.089   4.289 -2.0063  0.7797  1.8772
   93DOPC   C2312741   6.190   7.515   4.498  0.1664 -0.0477 -0.7826
   93DOPC   H3R12742   6.096   7.503   4.441  0.1496  0.8606 -0.9760
   93DOPC   H3S12743   6.188   7.429   4.568 -1.7991  1.4035  1.1045
   93DOPC   C2412744   6.317   7.495   4.415  0.1186  0.2845 -0.7369
   93DOPC   H4R12745   6.313   7.399   4.359  0.9807  0.2905 -0.8163
   93DOPC   H4S12746   6.403   7.479   4.483 -2.2164 -0.6127  2.2498
   93DOPC   C2512747   6.358   7.609   4.329  0.5571  0.3911  0.4057
   93DOPC   H5R12748   6.466   7.606   4.305  0.7991  0.6129  1.4472
   93DOPC   H5S12749   6.343   7.713   4.365 -1.6448  0.7975 -1.3713
   93DOPC   C2612750   6.250   7.620   4.210 -0.5715  0.6031 -0.4467
   93DOPC   H6R12751   6.156   7.662   4.253 -0.3319  1.2254 -0.5217
   93DOPC   H6S12752   6.246   7.521   4.159  0.2642  0.9283 -1.1561
   93DOPC   C2712753   6.280   7.722   4.099  0.6992 -0.5016  0.4533
   93DOPC   H7R12754   6.186   7.724   4.040 -1.0010  0.3783  2.9896
   93DOPC   H7S12755   6.356   7.683   4.028  1.2113 -0.1666  0.8058
   93DOPC   C2812756   6.309   7.859   4.147 -0.1503  0.1290 -0.4230
   93DOPC   H8R12757   6.352   7.925   4.068 -2.4178 -1.2867 -3.0059
   93DOPC   H8S12758   6.389   7.848   4.223 -0.6306  0.5720  0.1486
   93DOPC   C2912759   6.190   7.923   4.214  0.5647  0.7437 -0.5737
   93DOPC   H9R12760   6.182   7.882   4.316  0.8937 -0.8532 -1.1508
   93DOPC  C21012761   6.127   8.034   4.181  0.4271 -0.3771  0.4989
   93DOPC  H10R12762   6.042   8.069   4.242  1.6390  0.9109  1.5260
   93DOPC  C21112763   6.131   8.119   4.055  0.2485 -0.0204 -0.3682
   93DOPC  H11R12764   6.236   8.148   4.032  0.9622  0.3817  2.9746
   93DOPC  H11S12765   6.060   8.204   4.051 -0.0104 -0.2677 -1.5680
   93DOPC  C21212766   6.093   8.029   3.934 -0.6130  0.1951 -0.4583
   93DOPC  H12R12767   5.993   7.987   3.956  0.1992 -1.3444  0.4556
   93DOPC  H12S12768   6.153   7.936   3.931 -0.2774  0.4228 -0.9452
   93DOPC  C21312769   6.110   8.097   3.795 -0.5181 -0.0111  0.3498
   93DOPC  H13R12770   6.056   8.194   3.795  0.9568  0.8353  0.3289
   93DOPC  H13S12771   6.063   8.031   3.719  0.4768  0.7473 -0.9732
   93DOPC  C21412772   6.265   8.110   3.760  0.1922  0.4507  0.1007
   93DOPC  H14R12773   6.321   8.014   3.770 -1.6364 -0.6001  0.6823
   93DOPC  H14S12774   6.287   8.183   3.840 -1.2272 -0.7653  1.6625
   93DOPC  C21512775   6.272   8.176   3.615  0.2449 -0.1247 -0.4606
   93DOPC  H15R12776   6.190   8.251   3.607 -0.8175 -1.1509  0.4806
   93DOPC  H15S12777   6.250   8.106   3.532 -0.7859  1.0915 -1.2690
   93DOPC  C21612778   6.409   8.231   3.578  0.1328 -0.2796 -0.3660
   93DOPC  H16R12779   6.482   8.147   3.576 -0.4543 -0.8227  0.2343
   93DOPC  H16S12780   6.440   8.312   3.648 -0.8878  0.0409 -0.2668
   93DOPC  C21712781   6.408   8.297   3.438  0.8335  0.1736  0.7977
   93DOPC  H17R12782   6.316   8.359   3.437  1.4928  1.1770  0.8430
   93DOPC  H17S12783   6.392   8.217   3.363 -2.2401  1.5324 -0.1727
   93DOPC  C21812784   6.526   8.378   3.388 -0.3330  0.8007 -0.0355
   93DOPC  H18R12785   6.525   8.475   3.444 -3.6774  1.5170 -1.1401
   93DOPC  H18S12786   6.520   8.407   3.281 -1.4184  1.0870  0.0938
   93DOPC  H18T12787   6.623   8.325   3.403 -1.0447 -0.4157  0.4492
   93DOPC   C3312788   5.651   7.870   4.267  0.2540 -0.5483 -0.1119
   93DOPC   H3X12789   5.651   7.780   4.331 -0.5066 -0.4248  0.0702
   93DOPC   H3Y12790   5.746   7.879   4.210  0.2263  1.3047  0.0607
   93DOPC   C3412791   5.540   7.842   4.162  0.4488 -0.4979 -0.2033
   93DOPC   H4X12792   5.546   7.931   4.096 -1.4357  1.3491  1.9313
   93DOPC   H4Y12793   5.438   7.854   4.204  0.2751  0.6270 -0.9104
   93DOPC   C3512794   5.558   7.712   4.085 -0.5026 -0.0089  0.1597
   93DOPC   H5X12795   5.523   7.629   4.149 -1.1116  0.6954  0.7567
   93DOPC   H5Y12796   5.666   7.709   4.057 -0.0713  1.8545  1.4353
   93DOPC   C3612797   5.490   7.720   3.950 -0.8148  0.5498 -0.0289
   93DOPC   H6X12798   5.530   7.801   3.885  0.3943  1.1111  1.3769
   93DOPC   H6Y12799   5.525   7.634   3.889 -0.0895  0.4496  0.5141
   93DOPC   C3712800   5.346   7.723   3.955  0.2790 -0.6362  0.3272
   93DOPC   H7X12801   5.314   7.631   4.010 -0.6956 -1.6123 -1.7605
   93DOPC   H7Y12802   5.310   7.807   4.017 -0.0921 -1.7895  1.7342
   93DOPC   C3812803   5.275   7.724   3.822  0.1282  0.2896  0.0259
   93DOPC   H8X12804   5.176   7.676   3.814  0.0911  0.6227 -2.0628
   93DOPC   H8Y12805   5.341   7.668   3.752 -0.8344  0.2037 -0.8314
   93DOPC   C3912806   5.241   7.870   3.777 -0.2328 -0.0898  0.2084
   93DOPC   H9X12807   5.270   7.903   3.676  0.7396  0.6076  0.6932
   93DOPC  C31012808   5.155   7.949   3.836 -0.2705  0.3332 -0.1082
   93DOPC  H10X12809   5.159   8.056   3.813 -1.4006  0.2436 -0.7990
   93DOPC  C31112810   5.075   7.919   3.964 -0.4037  0.1723 -0.6886
   93DOPC  H11X12811   5.090   7.813   3.990  1.8511  0.3544 -1.0386
   93DOPC  H11Y12812   4.968   7.925   3.937 -0.4946 -0.4615 -0.4650
   93DOPC  C31212813   5.104   8.008   4.095 -0.5773 -0.0020 -0.1231
   93DOPC  H12X12814   5.213   8.000   4.109 -0.4927  0.9609 -0.1539
   93DOPC  H12Y12815   5.051   7.969   4.184 -1.7191 -0.0905 -0.8094
   93DOPC  C31312816   5.060   8.158   4.083  0.1159  0.7620 -0.7218
   93DOPC  H13X12817   5.097   8.210   4.174  0.9866 -0.1938 -0.5076
   93DOPC  H13Y12818   5.112   8.197   3.993  1.5793 -1.1971 -0.8026
   93DOPC  C31412819   4.906   8.186   4.083  1.0120  0.1633 -0.2826
   93DOPC  H14X12820   4.866   8.153   3.984 -1.6770 -1.2038  1.1449
   93DOPC  H14Y12821   4.863   8.127   4.167 -0.5444 -0.0527 -1.1872
   93DOPC  C31512822   4.875   8.330   4.111 -0.5215 -0.6148 -0.4836
   93DOPC  H15X12823   4.893   8.405   4.031  2.3734  0.8810  1.3839
   93DOPC  H15Y12824   4.940   8.366   4.194  1.9192 -3.3801 -1.0134
   93DOPC  C31612825   4.727   8.365   4.164 -0.1947  0.4596  0.5503
   93DOPC  H16X12826   4.725   8.315   4.263  0.1417  1.4860  1.0866
   93DOPC  H16Y12827   4.711   8.474   4.171  1.1898  0.8481 -1.3907
   93DOPC  C31712828   4.620   8.295   4.088  0.1338 -0.0337  0.1398
   93DOPC  H17X12829   4.629   8.307   3.977 -1.5297 -0.9745 -0.1250
   93DOPC  H17Y12830   4.632   8.186   4.106  1.7209  0.2584  1.0120
   93DOPC  C31812831   4.481   8.339   4.123  0.3249  1.2674  0.9364
   93DOPC  H18X12832   4.457   8.437   4.076  1.2027  0.7273 -0.6819
   93DOPC  H18Y12833   4.406   8.260   4.098  0.5220  1.5104 -0.4880
   93DOPC  H18Z12834   4.479   8.349   4.234 -0.0571 -0.2079  1.0870
   94DOPC     N12835   1.561   2.127   5.402  0.3180 -0.1700  0.4318
   94DOPC   C1212836   1.431   2.058   5.427  0.0604  0.3121  0.1610
   94DOPC  H12A12837   1.447   1.971   5.488 -0.5060 -0.0560 -0.2041
   94DOPC  H12B12838   1.390   2.027   5.332 -2.2241  0.3102  1.0868
   94DOPC   C1312839   1.663   2.036   5.327  0.2842 -0.0041 -0.2982
   94DOPC  H13A12840   1.621   2.010   5.231  2.2576  2.5551 -1.9888
   94DOPC  H13B12841   1.757   2.086   5.312  1.1515 -1.4608  0.1282
   94DOPC  H13C12842   1.683   1.948   5.386  2.2007  0.4516 -0.2272
   94DOPC   C1412843   1.622   2.168   5.529  0.0581 -0.5681 -0.1762
   94DOPC  H14A12844   1.653   2.080   5.583 -0.0611  0.6568  2.0374
   94DOPC  H14B12845   1.709   2.231   5.518  0.3018 -0.8758 -0.0137
   94DOPC  H14C12846   1.549   2.210   5.597 -0.2881 -3.5938  1.5267
   94DOPC   C1512847   1.532   2.239   5.311  0.4792  0.0075 -0.2894
   94DOPC  H15A12848   1.624   2.286   5.278  0.4876  0.4934  0.4237
   94DOPC  H15B12849   1.470   2.313   5.358 -1.0734 -1.6597  0.4008
   94DOPC  H15C12850   1.479   2.206   5.223 -0.8305  0.5687  0.2669
   94DOPC   C1112851   1.321   2.138   5.501  0.4994  0.1522 -0.1895
   94DOPC  H11A12852   1.241   2.062   5.515  0.9339 -0.1180  0.8769
   94DOPC  H11B12853   1.357   2.159   5.604 -0.3106  1.6923 -0.2019
   94DOPC     P12854   1.169   2.262   5.324 -0.2123  0.0157 -0.0240
   94DOPC   O1312855   1.175   2.388   5.251 -0.2297 -0.5641 -0.2198
   94DOPC   O1412856   1.044   2.226   5.392  0.2742 -0.4823  0.1093
   94DOPC   O1212857   1.278   2.264   5.435 -0.4141  0.5067  0.1625
   94DOPC   O1112858   1.219   2.140   5.230  0.3030  0.0116 -0.6382
   94DOPC    C112859   1.137   2.097   5.118 -0.4230 -0.4668  0.1792
   94DOPC    HA12860   1.059   2.172   5.093  1.1428  1.8073  1.7628
   94DOPC    HB12861   1.094   2.007   5.167  2.0574 -0.4189  2.6560
   94DOPC    C212862   1.222   2.057   4.993 -0.0646  0.0518 -0.0043
   94DOPC    HS12863   1.315   2.008   5.029  0.4895  1.3074  0.3086
   94DOPC   O2112864   1.243   2.170   4.909 -0.5630 -0.3645  0.6847
   94DOPC   C2112865   1.366   2.222   4.915 -0.0162 -0.3174  0.4431
   94DOPC   O2212866   1.446   2.201   5.007 -0.1990 -0.2313 -0.1297
   94DOPC   C2212867   1.378   2.337   4.807  0.5227 -0.4036 -0.2257
   94DOPC   H2R12868   1.463   2.399   4.841 -0.9101  2.8001 -2.0533
   94DOPC   H2S12869   1.292   2.405   4.824 -0.5166 -1.2649 -1.7729
   94DOPC    C312870   1.143   1.954   4.910  0.1800  0.1649 -0.1848
   94DOPC    HX12871   1.042   1.996   4.892  0.2413  0.7218  0.6988
   94DOPC    HY12872   1.140   1.859   4.967  0.8518 -0.3538 -0.9830
   94DOPC   O3112873   1.216   1.920   4.788  0.1201 -0.4789  0.0053
   94DOPC   C3112874   1.140   1.902   4.680 -0.0937 -0.9958  0.3339
   94DOPC   O3212875   1.025   1.860   4.676 -0.7094 -0.5053 -0.1675
   94DOPC   C3212876   1.229   1.913   4.555  0.2583  0.1552  1.0317
   94DOPC   H2X12877   1.315   1.983   4.560  0.2640  0.2838 -0.4161
   94DOPC   H2Y12878   1.261   1.813   4.519  0.4723  1.1047 -1.5982
   94DOPC   C2312879   1.384   2.281   4.659 -0.2588  0.8243 -0.5025
   94DOPC   H3R12880   1.381   2.365   4.586  2.0133 -1.2432 -3.1794
   94DOPC   H3S12881   1.296   2.217   4.636  0.2804 -0.4685  0.9018
   94DOPC   C2412882   1.519   2.214   4.628  0.1826  0.4038  0.6161
   94DOPC   H4R12883   1.522   2.121   4.689  1.4344 -0.1651 -0.2722
   94DOPC   H4S12884   1.603   2.284   4.647  0.8400  0.3327 -1.7392
   94DOPC   C2512885   1.537   2.166   4.482  0.7666 -0.3163 -0.7020
   94DOPC   H5R12886   1.546   2.257   4.419 -1.2934  0.0090 -0.6179
   94DOPC   H5S12887   1.437   2.126   4.455 -0.0515  1.7237 -0.9149
   94DOPC   C2612888   1.652   2.073   4.469  0.3844 -0.0612  0.5680
   94DOPC   H6R12889   1.635   1.978   4.524 -0.0021 -1.0357 -1.1763
   94DOPC   H6S12890   1.747   2.124   4.496  0.0855  0.6061  0.3785
   94DOPC   C2712891   1.675   2.027   4.321 -0.1851  0.3288 -0.5035
   94DOPC   H7R12892   1.719   2.110   4.262  3.0973 -0.2195  0.9937
   94DOPC   H7S12893   1.576   1.993   4.284 -0.4988 -2.0963  2.2500
   94DOPC   C2812894   1.783   1.915   4.316 -0.5166 -0.1001 -0.1482
   94DOPC   H8R12895   1.738   1.818   4.350  1.0434 -0.6642  0.3835
   94DOPC   H8S12896   1.865   1.935   4.388 -0.7062 -0.0415  0.0543
   94DOPC   C2912897   1.838   1.891   4.179  0.6389  0.5333 -0.2774
   94DOPC   H9R12898   1.940   1.931   4.169 -0.0745  2.3448 -0.5676
   94DOPC  C21012899   1.784   1.829   4.075 -0.6788 -0.1664 -1.3431
   94DOPC  H10R12900   1.840   1.820   3.981  1.1870 -3.2344 -0.0856
   94DOPC  C21112901   1.648   1.765   4.077  0.1066  0.0693  0.3112
   94DOPC  H11R12902   1.608   1.756   4.180  0.1615  0.8431  0.4079
   94DOPC  H11S12903   1.654   1.659   4.047 -1.0781 -0.7899  2.8303
   94DOPC  C21212904   1.551   1.829   3.971  0.5617  0.2170  0.2839
   94DOPC  H12R12905   1.552   1.938   3.995  0.5274  1.0044 -2.8754
   94DOPC  H12S12906   1.448   1.801   4.000  0.6873  0.8326  1.3832
   94DOPC  C21312907   1.590   1.817   3.827  0.0122  0.6191 -0.1613
   94DOPC  H13R12908   1.596   1.709   3.801 -1.0356  1.2464 -3.5380
   94DOPC  H13S12909   1.691   1.863   3.811 -0.5607  1.5733 -1.2096
   94DOPC  C21412910   1.495   1.885   3.723  0.4013  0.2060 -0.1935
   94DOPC  H14R12911   1.465   1.987   3.757  0.1286  1.2931 -3.3371
   94DOPC  H14S12912   1.402   1.824   3.723 -0.2031  1.0715 -1.2829
   94DOPC  C21512913   1.575   1.910   3.595 -0.3586  0.4860 -0.1600
   94DOPC  H15R12914   1.606   1.812   3.553 -1.0174  0.1818  0.0562
   94DOPC  H15S12915   1.666   1.965   3.629 -1.6977  1.3206  2.2719
   94DOPC  C21612916   1.516   2.015   3.504  0.5956 -0.7573  0.0826
   94DOPC  H16R12917   1.518   2.112   3.558 -0.0514 -0.2681 -0.7497
   94DOPC  H16S12918   1.406   2.012   3.486  0.5551  1.1162 -0.1833
   94DOPC  C21712919   1.598   2.025   3.374  0.3521 -0.1925  0.2444
   94DOPC  H17R12920   1.598   1.925   3.325 -1.1700 -0.8143  1.4398
   94DOPC  H17S12921   1.702   2.049   3.404 -0.0403  1.0885  0.6552
   94DOPC  C21812922   1.551   2.125   3.272  0.2255 -0.3599 -0.0093
   94DOPC  H18R12923   1.635   2.142   3.202  1.0345  0.7995  1.1945
   94DOPC  H18S12924   1.514   2.215   3.327  1.7839  0.4691 -0.2722
   94DOPC  H18T12925   1.468   2.077   3.216 -0.5072 -0.0891  0.8003
   94DOPC   C3312926   1.135   1.959   4.439 -0.6577 -0.2481  0.0519
   94DOPC   H3X12927   1.113   2.067   4.455 -0.5319 -0.1201 -0.6008
   94DOPC   H3Y12928   1.037   1.907   4.429 -1.4557  1.5157 -2.3660
   94DOPC   C3412929   1.215   1.941   4.310  0.6430 -0.2990  0.0871
   94DOPC   H4X12930   1.224   1.835   4.277 -0.9776 -0.1965 -0.7944
   94DOPC   H4Y12931   1.316   1.988   4.304  0.5801 -0.2680 -1.1167
   94DOPC   C3512932   1.131   1.997   4.189  0.9688  0.0885 -0.6545
   94DOPC   H5X12933   1.111   2.104   4.210  0.7477 -0.2549  1.0549
   94DOPC   H5Y12934   1.031   1.948   4.193  0.5444  0.9641 -0.0382
   94DOPC   C3612935   1.195   1.972   4.054  0.1723 -0.7150 -0.1485
   94DOPC   H6X12936   1.297   2.016   4.056  0.2895 -0.9195 -0.9534
   94DOPC   H6Y12937   1.194   1.864   4.028 -2.5087 -0.6804 -0.5749
   94DOPC   C3712938   1.123   2.045   3.936  0.8896 -0.4661 -0.0710
   94DOPC   H7X12939   1.014   2.030   3.947  0.7318  0.8642  0.2669
   94DOPC   H7Y12940   1.139   2.154   3.944  0.5040 -0.2741 -1.5554
   94DOPC   C3812941   1.161   1.992   3.800  0.4000  0.3945  0.7985
   94DOPC   H8X12942   1.200   1.889   3.817  1.0265 -0.3913 -4.0628
   94DOPC   H8Y12943   1.251   2.042   3.761 -1.1139  1.7814 -1.1132
   94DOPC   C3912944   1.053   2.018   3.695  0.5081 -0.9779  0.5522
   94DOPC   H9X12945   1.057   2.124   3.666  1.1927 -0.5348  2.1805
   94DOPC  C31012946   0.982   1.930   3.623 -0.3713  0.2327  0.1079
   94DOPC  H10X12947   0.912   1.971   3.548  1.6251  1.7255 -1.0261
   94DOPC  C31112948   0.986   1.778   3.644 -0.4948 -0.0819  0.3027
   94DOPC  H11X12949   0.896   1.730   3.601 -0.8649 -0.1441  1.1187
   94DOPC  H11Y12950   0.978   1.757   3.753 -1.2146  2.7591  0.9047
   94DOPC  C31212951   1.105   1.706   3.593 -0.8780  0.8129 -0.5771
   94DOPC  H12X12952   1.100   1.601   3.630  0.9610  0.9140  0.0586
   94DOPC  H12Y12953   1.202   1.748   3.626  0.2681 -0.8221 -1.7477
   94DOPC  C31312954   1.104   1.708   3.440  0.0847  0.1525  0.0700
   94DOPC  H13X12955   1.016   1.647   3.411 -2.4320  3.2124  0.6719
   94DOPC  H13Y12956   1.097   1.816   3.413  0.0394  0.3579  0.8928
   94DOPC  C31412957   1.230   1.657   3.360  0.0700  0.1145 -0.0129
   94DOPC  H14X12958   1.318   1.693   3.417  0.4317 -0.6984 -0.0532
   94DOPC  H14Y12959   1.233   1.547   3.371  0.9342  0.3337  2.8718
   94DOPC  C31512960   1.254   1.703   3.220  0.1879 -0.0578  0.1730
   94DOPC  H15X12961   1.247   1.814   3.211  0.3756 -0.1960 -2.5752
   94DOPC  H15Y12962   1.170   1.667   3.158 -0.7169  0.9242  0.7951
   94DOPC  C31612963   1.389   1.659   3.165 -0.2462 -0.1582  1.2154
   94DOPC  H16X12964   1.462   1.706   3.234 -0.7412  2.7396 -0.0754
   94DOPC  H16Y12965   1.396   1.549   3.171  0.5135 -0.1169  1.1828
   94DOPC  C31712966   1.407   1.692   3.019  1.0213  0.5113  0.6826
   94DOPC  H17X12967   1.331   1.651   2.949 -0.3074  1.9120  1.2559
   94DOPC  H17Y12968   1.399   1.800   2.996  1.4499  0.1710 -1.2418
   94DOPC  C31812969   1.540   1.643   2.971  0.2916 -0.3687 -0.0243
   94DOPC  H18X12970   1.575   1.679   2.871 -1.9710  0.3844 -0.5948
   94DOPC  H18Y12971   1.627   1.675   3.032  0.5803  0.0570 -0.6466
   94DOPC  H18Z12972   1.542   1.532   2.961 -0.7943 -0.3237 -0.9240
   95DOPC     N12973   1.613   3.611   5.695 -0.1494  0.0338 -0.0163
   95DOPC   C1212974   1.513   3.510   5.636  0.3403  0.0976 -0.9216
   95DOPC  H12A12975   1.549   3.409   5.651  0.4056  0.1336 -0.8344
   95DOPC  H12B12976   1.508   3.522   5.529 -0.8454 -0.4240 -0.9425
   95DOPC   C1312977   1.745   3.613   5.639 -0.6603  0.5447  0.0640
   95DOPC  H13A12978   1.747   3.662   5.543  1.9699 -1.2613 -0.9164
   95DOPC  H13B12979   1.813   3.661   5.708 -0.5152 -0.9287  0.9801
   95DOPC  H13C12980   1.785   3.513   5.629  1.2880  1.2125  0.6818
   95DOPC   C1412981   1.609   3.575   5.836  0.3967 -0.0182 -0.2974
   95DOPC  H14A12982   1.633   3.471   5.855 -0.0257 -0.1362 -0.3980
   95DOPC  H14B12983   1.667   3.647   5.892 -0.1253 -1.2248  1.9202
   95DOPC  H14C12984   1.511   3.585   5.879 -0.0007 -2.1013 -0.5801
   95DOPC   C1512985   1.572   3.762   5.678 -0.0420 -0.0998 -0.0155
   95DOPC  H15A12986   1.585   3.793   5.576  0.1971 -0.8165 -0.2124
   95DOPC  H15B12987   1.632   3.827   5.741 -1.9312  0.7533  0.9830
   95DOPC  H15C12988   1.466   3.771   5.696 -0.6767 -2.7682 -1.7281
   95DOPC   C1112989   1.362   3.523   5.689  0.0650  0.2723  0.7455
   95DOPC  H11A12990   1.310   3.441   5.634  0.6767  0.0205  0.5314
   95DOPC  H11B12991   1.362   3.479   5.792  0.6276  0.6202  0.8969
   95DOPC     P12992   1.214   3.704   5.552 -0.2557 -0.6190 -0.1333
   95DOPC   O1312993   1.300   3.810   5.499  0.1650  0.4321  0.1460
   95DOPC   O1412994   1.079   3.751   5.587  0.2689 -0.0088  0.0662
   95DOPC   O1212995   1.298   3.654   5.676  0.2466  0.9345  0.4267
   95DOPC   O1112996   1.204   3.576   5.460  0.0053 -0.4266 -0.6517
   95DOPC    C112997   1.301   3.562   5.348  0.1011 -0.2461  0.3369
   95DOPC    HA12998   1.374   3.487   5.387  0.8327  0.9746  1.3887
   95DOPC    HB12999   1.350   3.659   5.325 -0.5858 -0.0058 -0.1359
   95DOPC    C213000   1.233   3.519   5.216 -0.2799  1.3479  0.5740
   95DOPC    HS13001   1.166   3.602   5.187 -1.2538  0.1317 -0.8147
   95DOPC   O2113002   1.159   3.392   5.242  0.8403  0.1445  0.1823
   95DOPC   C2113003   1.048   3.385   5.166  0.7898  0.7120 -0.1528
   95DOPC   O2213004   0.996   3.471   5.103  0.2380  0.0261  0.3483
   95DOPC   C2213005   0.980   3.248   5.179  0.1829  0.7639  0.1740
   95DOPC   H2R13006   0.888   3.276   5.235 -1.2709 -1.9998 -0.6483
   95DOPC   H2S13007   1.036   3.174   5.239 -2.4785 -0.1277  1.7376
   95DOPC    C313008   1.346   3.493   5.109  0.0567 -0.0102  0.5005
   95DOPC    HX13009   1.419   3.422   5.153  0.1495 -0.5249 -0.4627
   95DOPC    HY13010   1.393   3.590   5.083  0.3032 -0.2598 -0.0064
   95DOPC   O3113011   1.298   3.432   4.987 -0.1788 -0.2818  0.2474
   95DOPC   C3113012   1.233   3.519   4.900 -0.2886 -0.5770 -0.2058
   95DOPC   O3213013   1.239   3.640   4.911  0.0261 -0.2350 -0.1224
   95DOPC   C3213014   1.160   3.439   4.792 -0.0481 -0.1426 -0.4119
   95DOPC   H2X13015   1.241   3.388   4.736 -0.5109 -0.9345 -0.3649
   95DOPC   H2Y13016   1.093   3.369   4.847  0.6563 -0.3130  0.2504
   95DOPC   C2313017   0.932   3.189   5.042 -0.4740  0.0559  0.0856
   95DOPC   H3R13018   0.882   3.272   4.987  0.4080  0.3619 -0.2811
   95DOPC   H3S13019   0.855   3.110   5.057 -0.0890 -0.9255 -2.5739
   95DOPC   C2413020   1.043   3.127   4.954 -0.1586 -0.4013  0.2925
   95DOPC   H4R13021   1.076   3.026   4.987  0.0500 -0.6661 -0.6909
   95DOPC   H4S13022   1.139   3.181   4.966 -0.4973  0.4979 -0.8508
   95DOPC   C2513023   1.000   3.119   4.806  0.5389  0.7021  0.3522
   95DOPC   H5R13024   0.961   3.212   4.760  1.2028  0.2812 -1.0929
   95DOPC   H5S13025   0.909   3.056   4.803  0.2640  1.1350 -0.8852
   95DOPC   C2613026   1.113   3.058   4.724 -0.3201  0.2024 -0.5742
   95DOPC   H6R13027   1.148   2.967   4.778 -1.4628  0.4136  0.5564
   95DOPC   H6S13028   1.201   3.124   4.711  1.5126 -2.3950 -2.5091
   95DOPC   C2713029   1.072   3.008   4.583 -0.1837 -0.8256 -0.6100
   95DOPC   H7R13030   1.027   3.084   4.516  1.3768 -0.3436 -1.1438
   95DOPC   H7S13031   1.007   2.918   4.595  1.5957 -1.8762  1.9749
   95DOPC   C2813032   1.196   2.954   4.502 -0.0343 -0.3006 -0.0329
   95DOPC   H8R13033   1.162   2.882   4.424  1.3112  0.5716 -1.4718
   95DOPC   H8S13034   1.259   2.890   4.568  0.7724 -1.6610 -2.0407
   95DOPC   C2913035   1.277   3.070   4.444  0.5218  0.3530  0.5435
   95DOPC   H9R13036   1.317   3.141   4.518 -1.0146  1.1062  0.6976
   95DOPC  C21013037   1.309   3.078   4.316 -0.5545  0.2686  0.6662
   95DOPC  H10R13038   1.380   3.154   4.279 -1.8164  0.4774 -1.4935
   95DOPC  C21113039   1.255   2.989   4.200  0.3686 -0.4707  0.5281
   95DOPC  H11R13040   1.246   3.050   4.107  0.3976  0.0184  0.8454
   95DOPC  H11S13041   1.149   2.961   4.217 -0.1030 -0.3336 -1.7848
   95DOPC  C21213042   1.332   2.857   4.165 -0.1661  0.5800  0.6694
   95DOPC  H12R13043   1.291   2.788   4.242 -1.4863  1.4148  0.7437
   95DOPC  H12S13044   1.439   2.870   4.191 -0.6289  0.2745  2.9493
   95DOPC  C21313045   1.304   2.804   4.019 -0.0034  0.5309  0.0033
   95DOPC  H13R13046   1.354   2.877   3.951  2.1193 -0.7627  0.0844
   95DOPC  H13S13047   1.194   2.803   4.003 -0.4019 -0.3326  2.3819
   95DOPC  C21413048   1.354   2.658   3.995  0.4207  0.0364 -0.0123
   95DOPC  H14R13049   1.317   2.588   4.073 -2.7213  0.3885 -1.0400
   95DOPC  H14S13050   1.465   2.652   3.996  0.3860 -0.7035  0.8128
   95DOPC  C21513051   1.311   2.592   3.859 -0.5821  0.5021  0.5972
   95DOPC  H15R13052   1.348   2.656   3.776 -3.2573 -0.4448 -1.4546
   95DOPC  H15S13053   1.200   2.588   3.853 -0.5254 -1.1130  0.2739
   95DOPC  C21613054   1.358   2.445   3.846 -0.6023 -0.0740 -0.5349
   95DOPC  H16R13055   1.339   2.390   3.941 -1.1830 -0.0299 -0.6276
   95DOPC  H16S13056   1.469   2.446   3.839 -0.1316  2.8928  3.6505
   95DOPC  C21713057   1.302   2.361   3.738 -0.1222 -0.1213 -0.4769
   95DOPC  H17R13058   1.192   2.372   3.724  0.0180  1.1284 -0.7555
   95DOPC  H17S13059   1.319   2.257   3.773  1.1346  0.1220 -0.3229
   95DOPC  C21813060   1.374   2.373   3.608  0.1495 -0.2247  0.3711
   95DOPC  H18R13061   1.338   2.303   3.529 -0.9379 -0.6140  1.1908
   95DOPC  H18S13062   1.479   2.347   3.633  0.5100 -0.6011 -1.3773
   95DOPC  H18T13063   1.374   2.470   3.553 -1.1372  0.2127  1.1062
   95DOPC   C3313064   1.082   3.531   4.693  0.1303 -0.1745 -0.8639
   95DOPC   H3X13065   1.141   3.577   4.612  1.5802 -1.7139 -0.7350
   95DOPC   H3Y13066   1.042   3.614   4.756 -1.0914 -1.3376 -0.0371
   95DOPC   C3413067   0.950   3.478   4.635  0.1629 -0.0619 -0.2673
   95DOPC   H4X13068   0.880   3.560   4.607  1.9518  0.7642 -2.6200
   95DOPC   H4Y13069   0.895   3.425   4.716 -2.2377 -1.0708 -2.3934
   95DOPC   C3513070   0.963   3.381   4.520 -0.6596 -0.2660  0.1440
   95DOPC   H5X13071   1.018   3.289   4.551 -2.1047 -1.0585  0.4421
   95DOPC   H5Y13072   1.021   3.435   4.442 -0.1070 -1.3157 -0.1992
   95DOPC   C3613073   0.821   3.358   4.450 -1.1593  0.1659 -0.2095
   95DOPC   H6X13074   0.787   3.448   4.396 -1.4010 -0.7681 -1.6589
   95DOPC   H6Y13075   0.839   3.276   4.377 -0.0143 -1.0300  1.3488
   95DOPC   C3713076   0.711   3.304   4.545 -0.1819 -0.5122  1.3471
   95DOPC   H7X13077   0.758   3.220   4.601 -1.1716  1.0907  4.8255
   95DOPC   H7Y13078   0.692   3.378   4.626  0.0147  2.0955 -0.8376
   95DOPC   C3813079   0.571   3.265   4.487  0.0244  0.0225  0.1061
   95DOPC   H8X13080   0.510   3.220   4.568 -0.5613 -1.2764 -1.0183
   95DOPC   H8Y13081   0.599   3.175   4.428 -0.1280 -0.5554  0.9029
   95DOPC   C3913082   0.497   3.352   4.390 -0.1639 -0.3128  0.2216
   95DOPC   H9X13083   0.432   3.426   4.440  0.3444 -0.6792  1.4536
   95DOPC  C31013084   0.484   3.330   4.255  0.3057  0.1161  0.2714
   95DOPC  H10X13085   0.427   3.403   4.195 -0.4151 -1.4279 -1.0163
   95DOPC  C31113086   0.546   3.231   4.162 -0.5377  0.0808 -0.4926
   95DOPC  H11X13087   0.514   3.128   4.190  1.2583 -1.0174 -2.1791
   95DOPC  H11Y13088   0.655   3.239   4.178 -0.4621  2.6085 -1.8055
   95DOPC  C31213089   0.513   3.271   4.018 -0.1221  0.2168  0.8094
   95DOPC  H12X13090   0.571   3.208   3.947 -1.3940 -2.0273  1.6455
   95DOPC  H12Y13091   0.559   3.370   4.003  1.2415 -0.3429  1.1915
   95DOPC  C31313092   0.365   3.275   3.987 -0.5929  0.2292  0.6394
   95DOPC  H13X13093   0.326   3.173   4.006  0.0716  0.1039  1.3794
   95DOPC  H13Y13094   0.300   3.342   4.047 -0.0161  0.3764  1.1067
   95DOPC  C31413095   0.323   3.313   3.839  0.1714 -0.2603 -0.0044
   95DOPC  H14X13096   0.358   3.241   3.762 -0.3979  1.5959 -2.1426
   95DOPC  H14Y13097   0.212   3.318   3.847  0.2708  1.1407  0.7857
   95DOPC  C31513098   0.358   3.453   3.793  1.0116  0.2933 -0.7677
   95DOPC  H15X13099   0.325   3.465   3.688  0.8695  1.1446 -0.6315
   95DOPC  H15Y13100   0.465   3.482   3.796  1.1471  0.0294 -2.2530
   95DOPC  C31613101   0.269   3.563   3.860 -0.4959  0.2239 -0.2353
   95DOPC  H16X13102   0.170   3.519   3.881 -0.4075  0.2833  0.3122
   95DOPC  H16Y13103   0.316   3.573   3.960 -1.3532  2.5072 -0.0010
   95DOPC  C31713104   0.251   3.692   3.786 -0.1319  0.3760  0.2332
   95DOPC  H17X13105   0.346   3.736   3.750  0.6362 -0.7335  0.8137
   95DOPC  H17Y13106   0.184   3.679   3.699 -1.5098  1.8979  0.9933
   95DOPC  C31813107   0.173   3.782   3.872 -0.7214 -0.1033  0.2532
   95DOPC  H18X13108   0.179   3.888   3.838 -0.5668 -0.6711 -1.6143
   95DOPC  H18Y13109   0.067   3.749   3.870 -0.3530 -1.3255  0.2839
   95DOPC  H18Z13110   0.213   3.794   3.975 -1.1266  1.1800  0.2772
   96DOPC     N13111   0.132   2.585   5.467 -0.3004 -0.1388 -0.1291
   96DOPC   C1213112   0.063   2.517   5.349 -0.0977  0.4064  0.8657
   96DOPC  H12A13113   8.502   2.480   5.379  0.2977 -1.4218 -0.0231
   96DOPC  H12B13114   0.120   2.431   5.317  0.3636  0.2997  1.9201
   96DOPC   C1313115   0.253   2.641   5.411  0.2673 -0.5322  0.5356
   96DOPC  H13A13116   0.305   2.699   5.486 -0.1208  0.9730 -0.3070
   96DOPC  H13B13117   0.322   2.566   5.377 -1.0718 -1.1213 -1.0214
   96DOPC  H13C13118   0.221   2.697   5.325  1.1634 -1.6730 -0.5776
   96DOPC   C1413119   0.169   2.478   5.568 -0.4912 -0.2870  0.7814
   96DOPC  H14A13120   0.211   2.397   5.510 -1.6049  0.1811 -0.7456
   96DOPC  H14B13121   0.231   2.529   5.640  1.2363 -3.1969  1.5347
   96DOPC  H14C13122   0.080   2.451   5.622 -1.2624  0.1704 -0.2267
   96DOPC   C1513123   0.046   2.697   5.539 -0.0679  0.0021  0.1881
   96DOPC  H15A13124   0.104   2.765   5.600  1.3961 -0.4218 -0.6763
   96DOPC  H15B13125   8.509   2.649   5.604  1.4066  0.5813  2.3648
   96DOPC  H15C13126   8.528   2.751   5.462 -1.8294 -0.5985  0.9399
   96DOPC   C1113127   0.038   2.604   5.229  0.0585  0.2256  0.6405
   96DOPC  H11A13128   0.135   2.618   5.176 -0.7795 -1.2893 -1.3941
   96DOPC  H11B13129   8.514   2.547   5.155  0.5159 -0.1069  0.5296
   96DOPC     P13130   0.016   2.860   5.197 -0.4206  0.2644  0.2633
   96DOPC   O1313131   0.158   2.891   5.232  0.1006 -0.4804  0.1339
   96DOPC   O1413132   8.439   2.956   5.214  0.0613 -0.2318  0.0895
   96DOPC   O1213133   8.502   2.722   5.261 -0.0951  0.9569  0.1162
   96DOPC   O1113134   0.029   2.808   5.048 -0.2059 -0.1026 -0.4349
   96DOPC    C113135   0.102   2.878   4.949 -0.0289  0.8114 -0.2565
   96DOPC    HA13136   0.115   2.807   4.865  0.2153 -1.3281  1.5071
   96DOPC    HB13137   0.203   2.908   4.984 -0.2744 -0.3195  1.5399
   96DOPC    C213138   0.022   3.001   4.890  0.4192  0.8811 -0.1924
   96DOPC    HS13139   8.522   3.060   4.978 -1.3012 -1.5558  0.8806
   96DOPC   O2113140   8.448   2.946   4.809  0.1336 -0.0517  0.1291
   96DOPC   C2113141   8.339   3.012   4.814  0.3200  0.2547 -0.2335
   96DOPC   O2213142   8.320   3.110   4.885 -0.1074  0.0781  0.1787
   96DOPC   C2213143   8.235   2.935   4.724 -0.1271 -0.0335  0.0188
   96DOPC   H2R13144   8.206   2.848   4.787  1.0449 -0.4950 -0.0405
   96DOPC   H2S13145   8.286   2.898   4.632 -1.2423  0.2869 -0.7386
   96DOPC    C313146   0.106   3.089   4.802  0.6340 -0.0578  0.4349
   96DOPC    HX13147   0.127   3.033   4.708 -1.1485 -1.4086  0.7938
   96DOPC    HY13148   0.203   3.112   4.852 -0.3763 -1.3297  3.1468
   96DOPC   O3113149   0.035   3.209   4.763 -0.4370  0.2792 -0.5493
   96DOPC   C3113150   0.053   3.320   4.827  0.7797 -0.1439  0.4396
   96DOPC   O3213151   0.110   3.332   4.935 -0.3235  0.5738 -0.7361
   96DOPC   C3213152   8.517   3.436   4.760 -0.6461 -0.8219  0.4282
   96DOPC   H2X13153   8.510   3.418   4.651  0.6897 -0.3946  0.2519
   96DOPC   H2Y13154   8.413   3.431   4.799 -0.9492 -2.1749 -0.4833
   96DOPC   C2313155   8.115   3.022   4.670 -0.4700  0.1896  0.0876
   96DOPC   H3R13156   8.143   3.072   4.575  2.1050 -1.9540 -0.3914
   96DOPC   H3S13157   8.098   3.093   4.753 -0.4828  0.3835 -0.0802
   96DOPC   C2413158   8.001   2.928   4.640 -0.0488 -0.4452  0.0164
   96DOPC   H4R13159   7.995   2.875   4.737  2.2318  0.6724  0.8382
   96DOPC   H4S13160   8.036   2.860   4.560 -1.4253  0.3889 -1.3627
   96DOPC   C2513161   7.858   2.976   4.613 -0.3215  0.0856  0.1933
   96DOPC   H5R13162   7.845   3.010   4.508 -0.2566  0.6263  0.3565
   96DOPC   H5S13163   7.837   3.068   4.673 -1.0591  0.2866 -0.3479
   96DOPC   C2613164   7.747   2.868   4.642 -0.4910  0.6572 -0.2971
   96DOPC   H6R13165   7.648   2.895   4.598 -1.5049 -2.8057 -0.3776
   96DOPC   H6S13166   7.731   2.870   4.752 -0.9038 -0.4242 -0.3279
   96DOPC   C2713167   7.781   2.726   4.599  0.0849  0.6498 -0.0181
   96DOPC   H7R13168   7.702   2.658   4.635  1.1335 -1.6141 -1.7216
   96DOPC   H7S13169   7.878   2.697   4.645  0.0696  0.0938 -0.3276
   96DOPC   C2813170   7.789   2.711   4.449  0.2621  0.2078 -0.0697
   96DOPC   H8R13171   7.856   2.627   4.423 -0.0206  1.0403 -4.0520
   96DOPC   H8S13172   7.857   2.792   4.416  3.7767 -1.5687  2.1972
   96DOPC   C2913173   7.655   2.721   4.380 -0.1762 -0.3421  0.5030
   96DOPC   H9R13174   7.569   2.729   4.448  0.9237 -0.0349  1.9011
   96DOPC  C21013175   7.646   2.706   4.245  0.0516 -0.5184 -0.3720
   96DOPC  H10R13176   7.546   2.695   4.201  0.8757 -1.5642 -2.0943
   96DOPC  C21113177   7.763   2.667   4.158 -0.0783 -0.3990 -0.3885
   96DOPC  H11R13178   7.729   2.598   4.077  1.9042 -1.7257 -0.1533
   96DOPC  H11S13179   7.852   2.622   4.205  0.6219 -0.3468 -1.6151
   96DOPC  C21213180   7.824   2.792   4.089 -1.1592  0.1198  0.3552
   96DOPC  H12R13181   7.850   2.867   4.166 -0.3245  1.8235 -1.4927
   96DOPC  H12S13182   7.755   2.846   4.020  0.5730  3.1593  0.8079
   96DOPC  C21313183   7.962   2.762   4.016 -0.1709  0.1670  0.2248
   96DOPC  H13R13184   7.984   2.846   3.946 -0.3023 -0.7621 -0.9719
   96DOPC  H13S13185   7.949   2.672   3.952 -1.8154 -1.2616  2.4385
   96DOPC  C21413186   8.082   2.737   4.106  0.1421  0.1355  0.5536
   96DOPC  H14R13187   8.048   2.649   4.165 -2.1074  1.2527  1.0428
   96DOPC  H14S13188   8.096   2.826   4.170 -0.4816  0.6424  0.0006
   96DOPC  C21513189   8.212   2.697   4.037  0.0668  0.2690 -0.9918
   96DOPC  H15R13190   8.196   2.626   3.953 -0.3609 -1.0507  0.1792
   96DOPC  H15S13191   8.272   2.652   4.119 -1.6807 -1.2672 -0.4843
   96DOPC  C21613192   8.287   2.830   3.976  0.5895  0.3960 -0.6025
   96DOPC  H16R13193   8.274   2.918   4.043 -3.1607 -1.2652  1.1584
   96DOPC  H16S13194   8.223   2.845   3.886 -1.6737  0.4902  0.9330
   96DOPC  C21713195   8.428   2.794   3.931  0.3116 -0.5176  0.2190
   96DOPC  H17R13196   8.434   2.694   3.881  0.0432 -1.2737  1.6565
   96DOPC  H17S13197   8.488   2.783   4.024  1.0438  0.1699 -0.1606
   96DOPC  C21813198   8.488   2.902   3.845 -0.1498 -1.5957 -0.3410
   96DOPC  H18R13199   0.045   2.879   3.787  0.7351  1.0093 -0.0924
   96DOPC  H18S13200   8.511   2.992   3.905 -1.7033  0.2378 -2.3481
   96DOPC  H18T13201   8.407   2.940   3.779 -1.3327 -1.4778  1.1309
   96DOPC   C3313202   0.033   3.579   4.794 -0.8040  0.7156 -0.1375
   96DOPC   H3X13203   0.138   3.587   4.760 -0.7388 -0.3558 -0.2228
   96DOPC   H3Y13204   0.044   3.588   4.904 -0.4348  2.0717 -0.2784
   96DOPC   C3413205   8.496   3.705   4.752  0.0808 -0.4229  0.0217
   96DOPC   H4X13206   8.524   3.798   4.807 -0.8566 -3.1753  5.9069
   96DOPC   H4Y13207   8.390   3.688   4.779 -0.2634  1.0460 -0.2972
   96DOPC   C3513208   8.496   3.722   4.598 -0.1702 -0.1282 -0.1771
   96DOPC   H5X13209   8.459   3.627   4.553  0.3597 -0.3728 -0.1042
   96DOPC   H5Y13210   0.068   3.726   4.567 -0.6029  0.8259 -1.6414
   96DOPC   C3613211   8.420   3.839   4.534  0.5043 -0.0876  0.1769
   96DOPC   H6X13212   8.317   3.830   4.574 -0.3128 -0.2937 -1.8664
   96DOPC   H6Y13213   8.452   3.933   4.584 -1.8674 -0.2603  2.2101
   96DOPC   C3713214   8.437   3.856   4.378  0.0224  0.1604 -0.2512
   96DOPC   H7X13215   0.004   3.892   4.353 -0.7809  1.3538 -2.0406
   96DOPC   H7Y13216   8.427   3.760   4.322 -1.5392 -1.2548  2.2629
   96DOPC   C3813217   8.322   3.940   4.326 -0.4833  0.2157  0.3455
   96DOPC   H8X13218   8.319   4.042   4.370 -0.3637  1.0263 -1.4157
   96DOPC   H8Y13219   8.227   3.883   4.331 -0.4950 -0.4438 -3.6620
   96DOPC   C3913220   8.342   3.961   4.178 -0.1147  0.0350  0.0029
   96DOPC   H9X13221   8.410   4.043   4.151 -0.2465  0.3148  0.5050
   96DOPC  C31013222   8.296   3.887   4.080 -0.8652 -0.8703 -0.5135
   96DOPC  H10X13223   8.315   3.911   3.974 -0.8688  1.6497 -0.0123
   96DOPC  C31113224   8.237   3.750   4.100 -0.1548 -0.2586 -0.6159
   96DOPC  H11X13225   8.131   3.752   4.068 -0.5189 -1.2737  0.4681
   96DOPC  H11Y13226   8.228   3.705   4.201 -0.5908 -0.7167 -0.8564
   96DOPC  C31213227   8.317   3.640   4.014 -0.0460  0.6870  0.0978
   96DOPC  H12X13228   8.248   3.554   4.020 -1.4624  1.6012 -1.9951
   96DOPC  H12Y13229   8.418   3.644   4.061  0.0319 -0.7346  0.0922
   96DOPC  C31313230   8.316   3.675   3.869  0.2486 -0.3975 -0.2327
   96DOPC  H13X13231   8.214   3.690   3.828  0.3269  1.4307  0.1567
   96DOPC  H13Y13232   8.373   3.768   3.846 -0.2750 -0.2315 -0.8937
   96DOPC  C31413233   8.372   3.563   3.774  0.5895 -0.6862 -0.1861
   96DOPC  H14X13234   8.381   3.606   3.672  0.1138  0.7145  0.3325
   96DOPC  H14Y13235   8.476   3.547   3.807  0.5483 -2.2795 -0.7591
   96DOPC  C31513236   8.292   3.429   3.770  0.3395  0.2691 -0.5449
   96DOPC  H15X13237   8.190   3.447   3.731 -0.0292 -0.6623 -0.0464
   96DOPC  H15Y13238   8.282   3.411   3.879 -3.2072  2.8373 -0.2760
   96DOPC  C31613239   8.358   3.317   3.689 -0.0465  0.1759  0.5887
   96DOPC  H16X13240   8.468   3.321   3.708 -0.1202  0.6073  0.9401
   96DOPC  H16Y13241   8.313   3.220   3.720  2.1585 -0.7299  1.1365
   96DOPC  C31713242   8.343   3.324   3.539  0.0915 -0.3281  0.0847
   96DOPC  H17X13243   8.396   3.411   3.496 -1.2639  1.6717  2.2720
   96DOPC  H17Y13244   8.397   3.235   3.500  0.8486 -0.6040  1.6937
   96DOPC  C31813245   8.197   3.322   3.484 -0.2949  0.8713 -0.4212
   96DOPC  H18X13246   8.147   3.420   3.496 -2.5268 -0.1869 -0.4999
   96DOPC  H18Y13247   8.195   3.293   3.377  1.6506  1.7068 -0.7168
   96DOPC  H18Z13248   8.135   3.245   3.536  1.6928 -0.0025  0.7879
   97DOPC     N13249   2.901   0.822   5.452 -0.4552  0.6796 -0.0416
   97DOPC   C1213250   2.944   0.907   5.334  0.6288  0.4797 -0.3340
   97DOPC  H12A13251   3.050   0.915   5.317  0.7401  0.7860  0.4480
   97DOPC  H12B13252   2.912   1.006   5.365 -1.1306 -0.3615  0.7309
   97DOPC   C1313253   2.901   0.679   5.424 -0.0225 -0.6082 -0.0859
   97DOPC  H13A13254   2.867   0.650   5.326 -2.6760 -2.0526  1.1627
   97DOPC  H13B13255   3.004   0.644   5.428 -0.0977 -0.8002  0.1802
   97DOPC  H13C13256   2.849   0.618   5.496 -0.8362 -0.0547 -0.2025
   97DOPC   C1413257   2.765   0.865   5.513  0.7160  0.0757  0.2030
   97DOPC  H14A13258   2.687   0.861   5.438  1.5928  0.0934 -0.7271
   97DOPC  H14B13259   2.732   0.802   5.594 -0.1911  0.9569  0.5373
   97DOPC  H14C13260   2.770   0.967   5.547 -0.2114  1.3145 -3.0421
   97DOPC   C1513261   3.003   0.860   5.556  0.2807 -0.3326  0.0656
   97DOPC  H15A13262   2.993   0.966   5.570 -3.1304 -0.2768 -1.6108
   97DOPC  H15B13263   3.104   0.845   5.521  0.6355  0.9506  0.4931
   97DOPC  H15C13264   2.991   0.793   5.640  0.1819 -0.8813 -0.3815
   97DOPC   C1113265   2.873   0.886   5.196  0.1593  0.3268 -0.0518
   97DOPC  H11A13266   2.930   0.943   5.120 -0.2985  0.1153 -0.5532
   97DOPC  H11B13267   2.889   0.783   5.157  0.4669  1.3293 -2.7572
   97DOPC     P13268   2.698   1.074   5.201 -0.0510  0.1292 -0.1273
   97DOPC   O1313269   2.808   1.144   5.270  0.1066 -0.1494  0.2817
   97DOPC   O1413270   2.565   1.084   5.263 -0.4977 -0.1336  0.6371
   97DOPC   O1213271   2.733   0.916   5.203  0.6159  0.0212 -0.6361
   97DOPC   O1113272   2.695   1.115   5.052 -0.0585  0.1908  0.7750
   97DOPC    C113273   2.588   1.074   4.965 -0.0290  0.0011 -0.1835
   97DOPC    HA13274   2.590   1.154   4.888  1.0263 -0.6048 -0.8067
   97DOPC    HB13275   2.490   1.086   5.016  0.2449  1.2421  0.0848
   97DOPC    C213276   2.608   0.932   4.910  0.5669  0.3200 -0.0127
   97DOPC    HS13277   2.627   0.865   4.996 -3.5027  0.3907  1.1647
   97DOPC   O2113278   2.719   0.920   4.819  0.0270 -0.3205  0.3535
   97DOPC   C2113279   2.749   0.801   4.788 -0.1096  1.2170  0.2182
   97DOPC   O2213280   2.695   0.697   4.829 -0.5559  0.3489  0.3723
   97DOPC   C2213281   2.881   0.801   4.705  0.7130  0.6917  0.0293
   97DOPC   H2R13282   2.884   0.704   4.651 -2.2377  1.2029 -1.2699
   97DOPC   H2S13283   2.967   0.818   4.774  1.9464  0.7778 -1.4907
   97DOPC    C313284   2.467   0.896   4.844 -1.0189 -0.4293  0.4080
   97DOPC    HX13285   2.386   0.914   4.918 -1.2430  1.2230 -0.2023
   97DOPC    HY13286   2.464   0.790   4.813 -1.3991  0.1597 -1.7219
   97DOPC   O3113287   2.448   0.978   4.727  0.0375 -0.6343 -0.3171
   97DOPC   C3113288   2.329   0.950   4.667  0.1687 -0.9606 -0.1502
   97DOPC   O3213289   2.243   0.880   4.709  0.2033 -0.0016 -0.9516
   97DOPC   C3213290   2.317   1.008   4.524 -0.2388 -0.2126  0.1789
   97DOPC   H2X13291   2.225   0.966   4.479  0.3458  0.3589 -1.6563
   97DOPC   H2Y13292   2.310   1.117   4.545  1.5114  0.0338 -0.2818
   97DOPC   C2313293   2.886   0.912   4.595 -0.2573  0.0015  1.0640
   97DOPC   H3R13294   2.913   1.004   4.652  1.0240 -0.4670  1.2446
   97DOPC   H3S13295   2.787   0.923   4.546  0.1520 -0.8216  0.0301
   97DOPC   C2413296   2.995   0.896   4.486 -0.4743  0.0906  0.2687
   97DOPC   H4R13297   2.960   0.819   4.414 -1.6702  1.5452 -0.7712
   97DOPC   H4S13298   3.097   0.869   4.523 -0.3028  0.1918 -0.1184
   97DOPC   C2513299   3.008   1.029   4.411 -0.0888  0.5306  0.4838
   97DOPC   H5R13300   3.095   1.017   4.343 -0.7498  0.7120 -0.4152
   97DOPC   H5S13301   3.019   1.113   4.483  0.1370 -0.9413  2.2442
   97DOPC   C2613302   2.896   1.062   4.311  0.5016  0.7556 -0.4646
   97DOPC   H6R13303   2.796   1.058   4.359  1.0085  1.0064  0.6560
   97DOPC   H6S13304   2.904   0.984   4.233  1.0331  1.2896 -0.9551
   97DOPC   C2713305   2.915   1.203   4.256  0.6744 -0.4087  0.0874
   97DOPC   H7R13306   3.011   1.207   4.201  0.0860  0.2304 -0.9200
   97DOPC   H7S13307   2.919   1.279   4.338  1.5011  0.9044 -1.1211
   97DOPC   C2813308   2.798   1.234   4.162  0.2318  0.2232 -0.4545
   97DOPC   H8R13309   2.782   1.143   4.100  2.1473 -1.4410  1.3663
   97DOPC   H8S13310   2.832   1.305   4.083  1.1219 -2.5232 -2.7073
   97DOPC   C2913311   2.678   1.284   4.235  0.8938  0.4582 -0.2145
   97DOPC   H9R13312   2.690   1.317   4.339  1.1966  4.9074 -1.4432
   97DOPC  C21013313   2.553   1.282   4.187  0.0713  0.0338 -0.1351
   97DOPC  H10R13314   2.474   1.328   4.249  0.1191  2.6224 -1.8390
   97DOPC  C21113315   2.518   1.238   4.041  0.5723  0.4390 -0.3223
   97DOPC  H11R13316   2.606   1.198   3.985 -0.6720 -1.1373 -1.2404
   97DOPC  H11S13317   2.469   1.318   3.980  0.6166  0.4787 -0.3061
   97DOPC  C21213318   2.417   1.122   4.058  0.0017  0.2094 -0.2256
   97DOPC  H12R13319   2.339   1.164   4.126 -0.5098 -0.6745 -0.2413
   97DOPC  H12S13320   2.478   1.048   4.115  0.6703 -0.2700 -1.5352
   97DOPC  C21313321   2.363   1.055   3.936 -0.0029  0.2952  0.6198
   97DOPC  H13R13322   2.313   0.959   3.957  1.2335 -0.9629 -1.8227
   97DOPC  H13S13323   2.454   1.032   3.876  0.3464  1.1131  0.8176
   97DOPC  C21413324   2.278   1.139   3.840  0.0733 -1.0917 -0.6140
   97DOPC  H14R13325   2.254   1.076   3.752 -1.7267  0.6412 -1.4330
   97DOPC  H14S13326   2.328   1.233   3.806 -0.0006 -1.2209 -1.0873
   97DOPC  C21513327   2.144   1.176   3.900 -0.1944  0.4043 -0.8429
   97DOPC  H15R13328   2.162   1.255   3.976 -0.8211 -1.8467  1.8082
   97DOPC  H15S13329   2.103   1.096   3.965 -0.7754  0.4332 -1.1698
   97DOPC  C21613330   2.041   1.229   3.798  0.0183 -0.3689 -0.3893
   97DOPC  H16R13331   2.074   1.328   3.761 -0.6448  0.3672  0.9314
   97DOPC  H16S13332   2.022   1.158   3.714  0.2293 -0.7575 -0.1122
   97DOPC  C21713333   1.903   1.255   3.858 -0.3803  0.1597  0.7258
   97DOPC  H17R13334   1.906   1.337   3.933  2.1441  0.0323  0.8585
   97DOPC  H17S13335   1.869   1.159   3.903 -0.1246 -0.7860 -1.0112
   97DOPC  C21813336   1.808   1.294   3.738  0.7005 -0.4067 -0.4098
   97DOPC  H18R13337   1.703   1.318   3.764 -0.1158 -1.1529 -2.7917
   97DOPC  H18S13338   1.813   1.215   3.660  1.4593  0.5261 -1.3476
   97DOPC  H18T13339   1.846   1.391   3.697  1.0129  0.6808  2.2311
   97DOPC   C3313340   2.437   0.972   4.439 -0.3071  0.3050  0.6631
   97DOPC   H3X13341   2.532   1.007   4.485 -0.2821  2.0430 -0.5902
   97DOPC   H3Y13342   2.435   1.033   4.346  1.5212 -0.9250 -0.2408
   97DOPC   C3413343   2.455   0.823   4.400 -0.5945 -0.3740 -0.0320
   97DOPC   H4X13344   2.512   0.763   4.474  0.5133  1.0530  0.3189
   97DOPC   H4Y13345   2.513   0.820   4.305 -3.1532 -0.9088 -1.6966
   97DOPC   C3513346   2.329   0.750   4.360  0.1523 -0.7221 -0.2343
   97DOPC   H5X13347   2.254   0.751   4.442  0.4806 -1.1768  0.0765
   97DOPC   H5Y13348   2.366   0.646   4.347  0.4940 -0.6857  0.4046
   97DOPC   C3613349   2.258   0.814   4.238 -0.5277 -0.2441 -0.2161
   97DOPC   H6X13350   2.251   0.924   4.252  0.1757 -0.3848  1.4436
   97DOPC   H6Y13351   2.318   0.800   4.146 -0.8941  2.3010 -0.9295
   97DOPC   C3713352   2.118   0.759   4.213 -0.1678 -0.3479 -0.3060
   97DOPC   H7X13353   2.078   0.780   4.112 -1.9683 -2.7876 -0.1892
   97DOPC   H7Y13354   2.113   0.649   4.225  0.7976 -0.2487  1.2011
   97DOPC   C3813355   2.022   0.823   4.318  0.1491  0.4218 -0.2802
   97DOPC   H8X13356   2.064   0.822   4.421 -2.0602  2.1385  0.7239
   97DOPC   H8Y13357   1.930   0.762   4.330  0.8075 -0.7665 -1.0772
   97DOPC   C3913358   1.984   0.967   4.300  0.1429  0.0611 -0.1633
   97DOPC   H9X13359   2.031   1.048   4.358  0.2049  1.0315 -1.5098
   97DOPC  C31013360   1.903   1.003   4.197 -0.1738  0.0034 -0.3311
   97DOPC  H10X13361   1.865   1.107   4.192 -0.4013  0.0569  1.6568
   97DOPC  C31113362   1.828   0.911   4.104  0.4492  0.5030  0.2837
   97DOPC  H11X13363   1.865   0.807   4.119 -0.7644  0.0391  0.2169
   97DOPC  H11Y13364   1.843   0.935   3.996 -2.9203 -1.2309 -0.7395
   97DOPC  C31213365   1.674   0.919   4.125  0.3481  0.2093 -0.1260
   97DOPC  H12X13366   1.637   0.879   4.028  3.4793 -0.5640 -1.0943
   97DOPC  H12Y13367   1.631   1.021   4.134  0.1690  0.1335 -0.0976
   97DOPC  C31313368   1.607   0.842   4.239  0.2120  0.7412  0.4222
   97DOPC  H13X13369   1.687   0.798   4.302 -0.6038 -1.6454 -0.0935
   97DOPC  H13Y13370   1.559   0.918   4.304 -0.1167  3.5084 -2.7622
   97DOPC  C31413371   1.504   0.742   4.182  0.2292  0.4509 -0.3320
   97DOPC  H14X13372   1.426   0.791   4.120  1.8409  1.6238 -1.4924
   97DOPC  H14Y13373   1.561   0.672   4.118 -0.6398 -0.0773 -0.5546
   97DOPC  C31513374   1.424   0.656   4.284 -0.5610 -0.5174  0.6377
   97DOPC  H15X13375   1.315   0.657   4.262 -0.6115  0.3306  0.8748
   97DOPC  H15Y13376   1.445   0.706   4.381 -0.9642  0.3097  0.3096
   97DOPC  C31613377   1.484   0.513   4.310  0.0795 -0.6760  0.0723
   97DOPC  H16X13378   1.475   0.449   4.219 -2.5853  0.3405 -0.4548
   97DOPC  H16Y13379   1.593   0.521   4.327 -0.0069  0.7885  0.0196
   97DOPC  C31713380   1.429   0.436   4.429 -0.0628  0.0126  0.0393
   97DOPC  H17X13381   1.487   0.343   4.445  0.4314  0.0279 -1.5634
   97DOPC  H17Y13382   1.429   0.499   4.521 -1.4371 -0.9334  0.7216
   97DOPC  C31813383   1.293   0.389   4.379  0.2424 -0.0833  0.0685
   97DOPC  H18X13384   1.309   0.300   4.315 -1.1788  0.3458 -0.9271
   97DOPC  H18Y13385   1.235   0.349   4.466  1.0317 -0.5722  0.3817
   97DOPC  H18Z13386   1.238   0.471   4.327  0.2629 -0.2181 -0.1644
   98DOPC     N13387   4.541   7.404   5.392 -0.1135  0.1987  0.2941
   98DOPC   C1213388   4.625   7.280   5.403  0.1865 -0.3882  0.2715
   98DOPC  H12A13389   4.670   7.259   5.307 -0.1646 -0.9693  0.2300
   98DOPC  H12B13390   4.566   7.197   5.438 -0.4586 -0.8272 -1.7168
   98DOPC   C1313391   4.623   7.517   5.345 -0.7044  0.2102  0.1693
   98DOPC  H13A13392   4.705   7.530   5.415 -0.3343 -2.5257  0.3370
   98DOPC  H13B13393   4.669   7.475   5.257 -1.1113 -1.5259  0.7489
   98DOPC  H13C13394   4.572   7.611   5.332  1.4424  1.7779  2.1985
   98DOPC   C1413395   4.475   7.424   5.523  0.0259 -0.4908  0.3719
   98DOPC  H14A13396   4.426   7.333   5.552 -2.7991  0.7757 -0.0563
   98DOPC  H14B13397   4.552   7.455   5.592  1.0716  2.0166 -1.7477
   98DOPC  H14C13398   4.387   7.486   5.518  0.1689 -0.2283  0.9624
   98DOPC   C1513399   4.429   7.382   5.294 -0.7194 -0.0651  0.5180
   98DOPC  H15A13400   4.355   7.316   5.335 -1.3267  0.5864  0.4948
   98DOPC  H15B13401   4.468   7.341   5.202 -1.9538  0.1845 -0.1343
   98DOPC  H15C13402   4.366   7.469   5.279  1.1340  1.5254  1.4523
   98DOPC   C1113403   4.744   7.285   5.495 -0.7088  0.6787 -0.4244
   98DOPC  H11A13404   4.723   7.294   5.604 -0.9814 -3.5467  0.0268
   98DOPC  H11B13405   4.787   7.184   5.481  1.0764  1.5009 -1.1330
   98DOPC     P13406   4.996   7.337   5.486  0.2571 -0.3263 -0.4536
   98DOPC   O1313407   5.009   7.278   5.620  0.1206 -0.4382 -0.5283
   98DOPC   O1413408   5.079   7.457   5.453 -0.1459 -0.0230  0.1252
   98DOPC   O1213409   4.845   7.377   5.454  0.1697  0.2954  0.2587
   98DOPC   O1113410   5.014   7.226   5.370  0.0414 -0.3855 -0.1682
   98DOPC    C113411   4.995   7.264   5.232  0.4910 -0.8578  0.6771
   98DOPC    HA13412   5.012   7.371   5.208  0.6358 -0.8953  0.6128
   98DOPC    HB13413   4.886   7.253   5.216  0.7000 -2.4299  0.1664
   98DOPC    C213414   5.051   7.168   5.137 -0.0420 -0.3597  0.3527
   98DOPC    HS13415   5.046   7.074   5.197 -1.2097  0.0895  0.9877
   98DOPC   O2113416   5.186   7.198   5.111 -0.2685  0.2758 -0.6767
   98DOPC   C2113417   5.255   7.096   5.064 -0.0339 -0.0767  0.6472
   98DOPC   O2213418   5.220   6.979   5.077  0.4150  0.7061  0.3187
   98DOPC   C2213419   5.388   7.133   4.996  0.3366 -0.4822 -0.1010
   98DOPC   H2R13420   5.465   7.084   5.060  0.3958  0.2575  0.4002
   98DOPC   H2S13421   5.397   7.243   4.993 -0.7114 -0.3820  0.0989
   98DOPC    C313422   4.968   7.137   5.004 -0.0293  0.1693  0.1968
   98DOPC    HX13423   4.858   7.140   5.016 -0.1085 -0.4424 -0.3167
   98DOPC    HY13424   4.993   7.036   4.964 -0.0064  0.5912 -0.9145
   98DOPC   O3113425   5.008   7.231   4.903 -0.3837 -0.7155 -0.3785
   98DOPC   C3113426   4.932   7.343   4.883  0.0008  0.2839  0.0811
   98DOPC   O3213427   4.842   7.375   4.954  0.6888 -0.6736 -0.5235
   98DOPC   C3213428   4.982   7.415   4.759  0.9064 -0.2905 -0.4185
   98DOPC   H2X13429   5.071   7.471   4.795  2.1646 -1.9695 -0.7808
   98DOPC   H2Y13430   5.022   7.336   4.692  1.1631 -0.4217 -0.1127
   98DOPC   C2313431   5.384   7.074   4.855  0.4083 -0.0354  0.3146
   98DOPC   H3R13432   5.350   6.968   4.844 -1.3538  0.6875 -2.0857
   98DOPC   H3S13433   5.490   7.078   4.820  0.2757  1.2614  0.0380
   98DOPC   C2413434   5.312   7.165   4.757  0.3066  1.1131  0.4587
   98DOPC   H4R13435   5.334   7.273   4.773 -0.1926  1.3154 -0.1847
   98DOPC   H4S13436   5.203   7.161   4.779 -0.7463 -0.2692 -3.9780
   98DOPC   C2513437   5.336   7.118   4.613  0.0665 -0.5780  0.3980
   98DOPC   H5R13438   5.317   7.008   4.609  0.5216 -0.6339 -0.2010
   98DOPC   H5S13439   5.443   7.130   4.587  0.3151  0.6210  1.8794
   98DOPC   C2613440   5.249   7.198   4.520  0.4432  0.0395  0.5945
   98DOPC   H6R13441   5.275   7.306   4.517 -0.9279  0.4107  0.9720
   98DOPC   H6S13442   5.140   7.197   4.545  0.4985  1.2490  0.9461
   98DOPC   C2713443   5.263   7.161   4.371  0.0979  0.7071 -0.2787
   98DOPC   H7R13444   5.372   7.143   4.356  0.3378  1.2339  0.7940
   98DOPC   H7S13445   5.228   7.250   4.314 -0.7814  0.0538 -0.7869
   98DOPC   C2813446   5.168   7.053   4.327  0.2860  0.4793  0.6554
   98DOPC   H8R13447   5.184   7.056   4.217 -3.2431  0.0791  0.0123
   98DOPC   H8S13448   5.062   7.084   4.342 -0.0042  0.7485 -1.4949
   98DOPC   C2913449   5.200   6.915   4.380  0.4970 -0.1940 -0.7259
   98DOPC   H9R13450   5.156   6.872   4.471  0.4296 -1.4281 -1.3230
   98DOPC  C21013451   5.281   6.829   4.321  0.1492 -0.0194 -0.5230
   98DOPC  H10R13452   5.294   6.728   4.363  0.9679  0.0491 -0.6010
   98DOPC  C21113453   5.364   6.850   4.198  0.1646 -0.6874  0.2383
   98DOPC  H11R13454   5.460   6.798   4.219  0.1148  0.0840  2.6222
   98DOPC  H11S13455   5.382   6.957   4.174  1.1195 -0.7690  0.5444
   98DOPC  C21213456   5.315   6.798   4.060  0.3830  0.0256  0.8451
   98DOPC  H12R13457   5.365   6.856   3.980  2.6282  0.4330  2.4376
   98DOPC  H12S13458   5.210   6.828   4.043  0.9841  1.5182 -0.4591
   98DOPC  C21313459   5.346   6.644   4.034 -0.3324 -0.6568 -0.2130
   98DOPC  H13R13460   5.301   6.595   4.123  2.1190 -1.6148  0.5789
   98DOPC  H13S13461   5.457   6.633   4.040  0.0577  1.9224 -1.2129
   98DOPC  C21413462   5.303   6.570   3.912  0.1313  0.4162 -0.9216
   98DOPC  H14R13463   5.195   6.545   3.924  0.3584  0.4209  1.7959
   98DOPC  H14S13464   5.344   6.468   3.898 -0.4549  0.1930 -1.0261
   98DOPC  C21513465   5.332   6.650   3.787 -0.3285  0.1517  0.2318
   98DOPC  H15R13466   5.299   6.755   3.804  0.4325  0.6892 -1.3705
   98DOPC  H15S13467   5.273   6.599   3.708 -0.3819 -1.6167  1.3736
   98DOPC  C21613468   5.478   6.657   3.746 -0.6357  0.5241  0.3250
   98DOPC  H16R13469   5.534   6.703   3.830 -0.1839 -0.2593  0.4564
   98DOPC  H16S13470   5.476   6.729   3.661 -1.1988 -0.1188 -0.2177
   98DOPC  C21713471   5.542   6.522   3.715 -0.5400 -0.4085 -0.0090
   98DOPC  H17R13472   5.487   6.478   3.629 -4.1553  0.3017  1.7373
   98DOPC  H17S13473   5.539   6.450   3.800 -1.5123  1.6673  1.8221
   98DOPC  C21813474   5.693   6.536   3.675  0.2524 -0.5137  0.7476
   98DOPC  H18R13475   5.763   6.546   3.761  1.0461  0.9300 -0.0292
   98DOPC  H18S13476   5.704   6.629   3.615 -0.0926 -1.0976 -0.2529
   98DOPC  H18T13477   5.721   6.454   3.605 -0.5802  0.2587 -0.5183
   98DOPC   C3313478   4.876   7.500   4.690  1.0300 -0.4280  0.6410
   98DOPC   H3X13479   4.919   7.559   4.606  0.6667  0.3621  1.0012
   98DOPC   H3Y13480   4.830   7.575   4.758  1.4328 -1.1656  1.7696
   98DOPC   C3413481   4.764   7.418   4.627  0.1717  0.5567 -0.3463
   98DOPC   H4X13482   4.711   7.354   4.701 -1.6160 -1.1804 -2.9441
   98DOPC   H4Y13483   4.808   7.342   4.560  1.6138  0.3827  0.7652
   98DOPC   C3513484   4.661   7.495   4.541  0.1922  0.0969  0.0428
   98DOPC   H5X13485   4.705   7.555   4.459  1.4697 -1.3761 -0.3933
   98DOPC   H5Y13486   4.604   7.558   4.613  1.9668  0.6053  1.0664
   98DOPC   C3613487   4.552   7.405   4.489 -0.1605 -0.4542  0.0570
   98DOPC   H6X13488   4.596   7.330   4.420  1.2469 -0.1248  0.5770
   98DOPC   H6Y13489   4.494   7.362   4.573  0.7008 -3.3565 -0.6985
   98DOPC   C3713490   4.446   7.475   4.401  0.2465 -0.3075  0.2684
   98DOPC   H7X13491   4.409   7.557   4.465  1.8272 -0.5230  1.5017
   98DOPC   H7Y13492   4.497   7.507   4.308  0.1011 -1.8876 -0.3909
   98DOPC   C3813493   4.321   7.391   4.363 -0.1309  0.0821 -0.3923
   98DOPC   H8X13494   4.268   7.364   4.458 -3.0378 -0.3434 -2.0009
   98DOPC   H8Y13495   4.356   7.301   4.309 -0.6873 -0.0939 -0.4729
   98DOPC   C3913496   4.227   7.464   4.273  0.2271 -0.2306  0.3504
   98DOPC   H9X13497   4.224   7.572   4.293 -0.4656 -0.3002  0.6428
   98DOPC  C31013498   4.170   7.413   4.161 -0.2472  0.3732  0.5357
   98DOPC  H10X13499   4.110   7.476   4.094  1.8441  3.4499  1.3527
   98DOPC  C31113500   4.183   7.268   4.120 -0.3295  0.1011  0.6480
   98DOPC  H11X13501   4.088   7.241   4.068 -0.7286 -1.5160  2.1156
   98DOPC  H11Y13502   4.188   7.199   4.207 -1.7587 -1.9876 -0.8096
   98DOPC  C31213503   4.301   7.219   4.031 -0.7837 -0.1588 -0.5401
   98DOPC  H12X13504   4.401   7.235   4.078 -0.9753 -0.3092 -0.0744
   98DOPC  H12Y13505   4.295   7.261   3.929  1.3135  0.5788 -0.4213
   98DOPC  C31313506   4.302   7.064   4.019 -0.7633  0.8883 -0.2751
   98DOPC  H13X13507   4.345   7.018   4.110  0.6585  0.1348 -1.2874
   98DOPC  H13Y13508   4.197   7.027   4.018 -0.8355  0.9918  1.1683
   98DOPC  C31413509   4.394   7.021   3.905  0.2599  0.7731  0.8592
   98DOPC  H14X13510   4.376   7.087   3.816  0.3356  1.9010  1.6624
   98DOPC  H14Y13511   4.502   7.040   3.923  0.8376  1.5193 -2.6120
   98DOPC  C31513512   4.376   6.877   3.854  0.3219  0.0660  0.0055
   98DOPC  H15X13513   4.276   6.864   3.809  0.0455 -1.1273  0.8910
   98DOPC  H15Y13514   4.387   6.803   3.937  0.8215  0.4199  0.2632
   98DOPC  C31613515   4.488   6.833   3.753 -0.1529 -0.6610 -0.0072
   98DOPC  H16X13516   4.491   6.906   3.669  2.7569 -0.2423  0.3734
   98DOPC  H16Y13517   4.583   6.852   3.806 -0.1673  0.4833 -0.3644
   98DOPC  C31713518   4.481   6.688   3.707  0.8270  0.4594  0.1474
   98DOPC  H17X13519   4.581   6.661   3.667  1.5093  0.1915  1.9282
   98DOPC  H17Y13520   4.472   6.626   3.799 -2.4269  0.8679  0.1978
   98DOPC  C31813521   4.370   6.660   3.611 -0.1254 -0.3545 -0.4738
   98DOPC  H18X13522   4.394   6.568   3.553  1.2461 -1.5345  1.8350
   98DOPC  H18Y13523   4.280   6.643   3.674 -0.9442 -0.0742 -1.5374
   98DOPC  H18Z13524   4.349   6.750   3.549  1.4147 -0.0157 -0.5219
   99DOPC     N13525   1.453   0.576   5.761 -0.4148 -0.2585  0.5086
   99DOPC   C1213526   1.428   0.719   5.749  0.4036 -0.8434  0.3997
   99DOPC  H12A13527   1.440   0.772   5.843  1.7185 -0.2096 -0.1017
   99DOPC  H12B13528   1.326   0.741   5.723  0.9103 -0.4894 -1.3909
   99DOPC   C1313529   1.577   0.566   5.842 -0.3614 -0.4349  0.6031
   99DOPC  H13A13530   1.643   0.636   5.793 -1.7837  0.2144 -0.4948
   99DOPC  H13B13531   1.556   0.597   5.943 -2.1364  1.8754 -0.3483
   99DOPC  H13C13532   1.605   0.462   5.843  1.8214  0.1064  0.0963
   99DOPC   C1413533   1.481   0.503   5.635  0.4860 -0.5633  0.2488
   99DOPC  H14A13534   1.527   0.407   5.655 -0.3900 -1.0139  0.1383
   99DOPC  H14B13535   1.394   0.477   5.577 -0.0393  0.6466  0.4499
   99DOPC  H14C13536   1.544   0.557   5.566  0.8721  0.3633  1.2954
   99DOPC   C1513537   1.338   0.516   5.838  0.0355  0.2438 -0.2032
   99DOPC  H15A13538   1.245   0.534   5.786 -1.2504  1.0357  2.2280
   99DOPC  H15B13539   1.324   0.560   5.935  2.1570 -1.5804  1.0375
   99DOPC  H15C13540   1.348   0.409   5.852 -1.8084  0.0586 -0.1435
   99DOPC   C1113541   1.515   0.798   5.646 -0.0391  0.8442 -0.4274
   99DOPC  H11A13542   1.500   0.906   5.664  0.0392  0.9831 -1.1669
   99DOPC  H11B13543   1.626   0.785   5.652  0.2809  1.2863 -3.5653
   99DOPC     P13544   1.337   0.826   5.457 -0.0549  0.0979  0.4870
   99DOPC   O1313545   1.364   0.891   5.330  0.6975  0.1234 -0.0169
   99DOPC   O1413546   1.269   0.906   5.565  0.3060 -0.1995 -0.1242
   99DOPC   O1213547   1.475   0.766   5.508 -0.1805  0.1600 -0.0531
   99DOPC   O1113548   1.250   0.695   5.451  0.0465 -0.2297  0.3112
   99DOPC    C113549   1.264   0.592   5.354 -0.3180  0.1154  0.5273
   99DOPC    HA13550   1.258   0.494   5.405 -1.0018  0.0101  0.2457
   99DOPC    HB13551   1.368   0.592   5.314 -0.0822  1.9206  1.0658
   99DOPC    C213552   1.154   0.600   5.249 -0.5333  0.4347  0.3803
   99DOPC    HS13553   1.152   0.507   5.189 -0.0998  0.0397  0.9631
   99DOPC   O2113554   1.184   0.708   5.156  0.3098 -0.3912  0.8073
   99DOPC   C2113555   1.289   0.689   5.070 -0.2384 -1.0932 -0.0097
   99DOPC   O2213556   1.357   0.593   5.071  0.1201  0.6743  0.5733
   99DOPC   C2213557   1.294   0.801   4.978 -0.2648 -0.3745 -0.2553
   99DOPC   H2R13558   1.347   0.877   5.039 -0.5912 -0.1027 -0.3092
   99DOPC   H2S13559   1.197   0.837   4.940 -0.6625 -0.9131  0.2351
   99DOPC    C313560   1.014   0.625   5.321 -0.2223  0.2823 -0.2018
   99DOPC    HX13561   1.004   0.729   5.359 -3.2987  0.3259 -0.8640
   99DOPC    HY13562   1.012   0.562   5.412 -0.6312  1.2357  0.4594
   99DOPC   O3113563   0.893   0.590   5.251  0.0155 -0.1527  0.0753
   99DOPC   C3113564   0.845   0.682   5.171  0.0219  0.5214  0.3809
   99DOPC   O3213565   0.890   0.799   5.156 -0.6022 -0.3608 -0.4996
   99DOPC   C3213566   0.708   0.632   5.112 -0.1934  0.7312 -0.5537
   99DOPC   H2X13567   0.728   0.558   5.032 -0.9638 -2.3433  1.8473
   99DOPC   H2Y13568   0.663   0.579   5.199  0.1221  0.9527 -0.2514
   99DOPC   C2313569   1.377   0.785   4.845  0.6786  0.3283  0.0742
   99DOPC   H3R13570   1.342   0.698   4.785  1.7668 -1.2263  1.5688
   99DOPC   H3S13571   1.485   0.762   4.861  0.2925 -1.6231  0.0912
   99DOPC   C2413572   1.367   0.909   4.755  0.4609 -0.0613 -0.1518
   99DOPC   H4R13573   1.397   0.999   4.812 -4.5389  3.0356 -1.7653
   99DOPC   H4S13574   1.261   0.922   4.725  0.9461  1.2083 -1.4398
   99DOPC   C2513575   1.455   0.906   4.627 -0.0642 -1.1343 -0.2769
   99DOPC   H5R13576   1.452   1.005   4.576  2.2780 -1.3959 -1.0619
   99DOPC   H5S13577   1.401   0.844   4.552 -1.6100  0.4472 -0.5174
   99DOPC   C2613578   1.603   0.864   4.647  0.2341  0.1247  0.2831
   99DOPC   H6R13579   1.650   0.859   4.547 -1.0780  0.8024 -0.3893
   99DOPC   H6S13580   1.604   0.758   4.681  3.1579 -0.4094 -1.1739
   99DOPC   C2713581   1.671   0.955   4.747 -0.4640  0.4320 -0.5246
   99DOPC   H7R13582   1.601   0.990   4.826 -0.6078  1.0212 -0.9093
   99DOPC   H7S13583   1.687   1.049   4.690 -1.2257  0.7729 -0.1952
   99DOPC   C2813584   1.804   0.918   4.808 -1.1168  0.2089 -0.5615
   99DOPC   H8R13585   1.793   0.837   4.883 -0.0974 -1.3303 -2.0084
   99DOPC   H8S13586   1.842   1.010   4.858 -0.1280 -0.5155  0.0620
   99DOPC   C2913587   1.902   0.877   4.704 -0.0920  0.0032  0.0274
   99DOPC   H9R13588   1.954   0.959   4.653 -0.0011  0.8868  1.4854
   99DOPC  C21013589   1.936   0.749   4.671  0.0652 -0.0929  0.3125
   99DOPC  H10R13590   2.021   0.737   4.602 -0.4479  4.2596 -1.4079
   99DOPC  C21113591   1.870   0.627   4.737  0.2065 -0.2413  0.5625
   99DOPC  H11R13592   1.786   0.657   4.802  1.1962  0.5882  1.4907
   99DOPC  H11S13593   1.947   0.578   4.800  1.4406  0.1962 -0.5536
   99DOPC  C21213594   1.821   0.536   4.617 -0.2661 -0.2656 -0.1924
   99DOPC  H12R13595   1.767   0.600   4.544  0.2460 -0.4114 -0.7003
   99DOPC  H12S13596   1.756   0.460   4.666 -0.2829 -0.7243 -0.9032
   99DOPC  C21313597   1.937   0.456   4.556 -0.5156  0.2875  0.2867
   99DOPC  H13R13598   1.967   0.385   4.637  1.0692 -1.4204 -1.6756
   99DOPC  H13S13599   2.030   0.501   4.516 -1.5482  0.9046 -1.5105
   99DOPC  C21413600   1.898   0.370   4.436  0.2265 -0.4931  0.0612
   99DOPC  H14R13601   1.795   0.327   4.446 -1.7819  2.9485 -3.2539
   99DOPC  H14S13602   1.981   0.297   4.432  1.9287  1.3337  0.6721
   99DOPC  C21513603   1.905   0.442   4.300 -0.3494 -1.0997  0.1394
   99DOPC  H15R13604   2.009   0.452   4.261 -0.9462 -1.0884 -1.5080
   99DOPC  H15S13605   1.858   0.541   4.318 -1.4695 -1.4066 -1.0055
   99DOPC  C21613606   1.831   0.362   4.189 -0.1660 -0.9967  0.1545
   99DOPC  H16R13607   1.845   0.427   4.100  1.0442 -1.8293 -0.2869
   99DOPC  H16S13608   1.722   0.356   4.213 -0.7262  0.2647 -1.8538
   99DOPC  C21713609   1.881   0.219   4.155 -0.2214 -0.0152  0.5417
   99DOPC  H17R13610   1.879   0.169   4.254  1.7714 -1.1508  0.0546
   99DOPC  H17S13611   1.983   0.248   4.122 -0.6018 -1.4394 -2.1194
   99DOPC  C21813612   1.800   0.145   4.043  0.8570 -0.1081  0.1273
   99DOPC  H18R13613   1.858   0.065   3.993 -0.6145 -1.3146  0.2709
   99DOPC  H18S13614   1.775   0.213   3.959 -1.4158 -0.2999  0.5769
   99DOPC  H18T13615   1.702   0.122   4.092  0.5333  1.5685  0.3132
   99DOPC   C3313616   0.609   0.736   5.047 -0.1818  0.3968  0.5989
   99DOPC   H3X13617   0.654   0.791   4.962  1.7318 -1.7275  0.1595
   99DOPC   H3Y13618   0.587   0.812   5.125 -1.6306  0.6709 -0.0401
   99DOPC   C3413619   0.481   0.663   4.996 -0.3109  0.4342 -0.5274
   99DOPC   H4X13620   0.420   0.614   5.075  0.7056 -1.7306 -1.0127
   99DOPC   H4Y13621   0.517   0.577   4.936  3.2742  0.8074  0.8416
   99DOPC   C3513622   0.387   0.756   4.915 -0.2987 -0.4801  0.3906
   99DOPC   H5X13623   0.327   0.818   4.986  1.1665  0.7360  0.6002
   99DOPC   H5Y13624   0.309   0.686   4.876  0.4089 -1.2132  0.2633
   99DOPC   C3613625   0.446   0.818   4.790 -1.1352  0.8668  1.1865
   99DOPC   H6X13626   0.358   0.863   4.740 -0.1836  1.7715  0.2797
   99DOPC   H6Y13627   0.517   0.903   4.800 -0.1077  0.9281 -3.8471
   99DOPC   C3713628   0.505   0.715   4.691 -0.4796 -0.2665 -0.3647
   99DOPC   H7X13629   0.600   0.681   4.738 -1.1272 -1.0239  0.4166
   99DOPC   H7Y13630   0.441   0.624   4.686  0.0112 -0.5766 -1.5794
   99DOPC   C3813631   0.535   0.765   4.548 -0.2938  0.2978  0.4220
   99DOPC   H8X13632   0.618   0.839   4.552 -1.0200  1.2574 -1.2057
   99DOPC   H8Y13633   0.447   0.814   4.500 -0.0324  1.7785  1.3848
   99DOPC   C3913634   0.579   0.650   4.454  0.4407  0.2039 -0.5603
   99DOPC   H9X13635   0.641   0.566   4.490 -0.8318 -1.1881 -1.4945
   99DOPC  C31013636   0.558   0.651   4.323  0.4955 -0.1493 -0.3937
   99DOPC  H10X13637   0.577   0.557   4.269 -0.4095 -1.7913  1.9601
   99DOPC  C31113638   0.494   0.771   4.254 -0.6408 -0.5250 -0.3880
   99DOPC  H11X13639   0.536   0.867   4.289 -0.3295 -1.0506  0.7194
   99DOPC  H11Y13640   0.387   0.778   4.283 -0.4564  0.6049  0.0448
   99DOPC  C31213641   0.509   0.762   4.100 -0.0685  0.3574  0.4474
   99DOPC  H12X13642   0.476   0.662   4.064 -0.2543  1.1433 -1.7031
   99DOPC  H12Y13643   0.617   0.750   4.077  0.2098 -0.9214  2.2441
   99DOPC  C31313644   0.437   0.872   4.013 -0.3388  0.0885  0.1080
   99DOPC  H13X13645   0.330   0.872   4.042 -0.9849  0.1639 -2.1442
   99DOPC  H13Y13646   0.478   0.971   4.042  1.7137 -0.9962  1.1421
   99DOPC  C31413647   0.440   0.854   3.860  0.8345  0.5963 -0.3238
   99DOPC  H14X13648   0.400   0.752   3.837 -0.5934  0.6173  1.8150
   99DOPC  H14Y13649   0.376   0.928   3.807  2.6498 -0.0808 -3.7565
   99DOPC  C31513650   0.582   0.860   3.805 -0.4022 -0.0061  0.1120
   99DOPC  H15X13651   0.643   0.778   3.850  1.9358  0.8596 -1.3205
   99DOPC  H15Y13652   0.622   0.963   3.817  0.7346 -0.3421 -0.6313
   99DOPC  C31613653   0.602   0.819   3.654  0.1588  0.6511 -0.1268
   99DOPC  H16X13654   0.523   0.742   3.635 -0.3583  1.1087  0.1363
   99DOPC  H16Y13655   0.585   0.907   3.588  1.8054 -0.7064 -2.5280
   99DOPC  C31713656   0.741   0.758   3.619  0.1879  0.2399  0.2312
   99DOPC  H17X13657   0.820   0.826   3.658  0.9090 -0.5082  0.1158
   99DOPC  H17Y13658   0.759   0.666   3.678  0.9686  0.7066  0.7558
   99DOPC  C31813659   0.777   0.738   3.474  0.2527 -0.0245  0.1512
   99DOPC  H18X13660   0.883   0.706   3.476  0.3033 -0.1857 -2.3779
   99DOPC  H18Y13661   0.718   0.658   3.425  0.6376  0.7658 -1.6943
   99DOPC  H18Z13662   0.759   0.834   3.422 -0.6417 -0.1099  0.2969
  100DOPC     N13663   4.609   1.061   5.772  0.2949  0.4683  0.1668
  100DOPC   C1213664   4.636   1.044   5.619 -0.4585 -0.3242 -0.2101
  100DOPC  H12A13665   4.742   1.046   5.601  0.6044  0.2919  4.5709
  100DOPC  H12B13666   4.596   1.129   5.567  0.9199  3.6177  4.4257
  100DOPC   C1313667   4.464   1.073   5.805  0.4049  0.8011  0.2496
  100DOPC  H13A13668   4.448   1.088   5.911  0.4695 -2.5997  0.8650
  100DOPC  H13B13669   4.412   1.153   5.756  2.0375  1.3826 -0.6383
  100DOPC  H13C13670   4.405   0.987   5.778 -1.4456  2.4519 -1.2387
  100DOPC   C1413671   4.669   1.182   5.827 -0.1587  0.7102  0.1193
  100DOPC  H14A13672   4.775   1.173   5.845 -0.2789 -2.2869 -0.1694
  100DOPC  H14B13673   4.659   1.266   5.760  0.3114 -1.6761 -3.1617
  100DOPC  H14C13674   4.632   1.206   5.926  1.3040  0.6187  0.7150
  100DOPC   C1513675   4.657   0.938   5.842  0.0355  0.1849 -0.2100
  100DOPC  H15A13676   4.617   0.949   5.942  0.6647  0.1729  0.0458
  100DOPC  H15B13677   4.765   0.938   5.849  0.0022  1.3394  0.6534
  100DOPC  H15C13678   4.610   0.846   5.811 -0.3868 -0.1318  1.2619
  100DOPC   C1113679   4.573   0.917   5.552 -0.1263  0.0578 -0.1480
  100DOPC  H11A13680   4.469   0.925   5.589  0.6859  1.5671  1.9908
  100DOPC  H11B13681   4.572   0.927   5.441 -0.5282 -1.4954 -0.3186
  100DOPC     P13682   4.779   0.755   5.536 -0.0699  0.4769  0.2360
  100DOPC   O1313683   4.830   0.619   5.580  0.5769 -1.1485 -0.0737
  100DOPC   O1413684   4.866   0.872   5.550  0.1655  0.0193 -0.6970
  100DOPC   O1213685   4.634   0.793   5.594 -0.4713 -0.6136  0.2065
  100DOPC   O1113686   4.761   0.734   5.381  0.3887 -0.2433  0.1410
  100DOPC    C113687   4.865   0.782   5.292  0.5663  0.4869  0.1420
  100DOPC    HA13688   4.885   0.700   5.221 -0.3265  0.3295  0.0556
  100DOPC    HB13689   4.962   0.800   5.342  1.5252  2.5576 -2.2874
  100DOPC    C213690   4.817   0.911   5.213 -1.0286 -0.0303 -0.1570
  100DOPC    HS13691   4.793   0.986   5.292  0.6817 -0.4329  0.7971
  100DOPC   O2113692   4.701   0.879   5.134 -0.3736 -0.1620  0.3176
  100DOPC   C2113693   4.605   0.970   5.128  0.4124 -0.3722  0.6534
  100DOPC   O2213694   4.614   1.080   5.182  0.1087 -0.3611 -0.3202
  100DOPC   C2213695   4.489   0.921   5.039  0.3115 -0.8267 -0.0061
  100DOPC   H2R13696   4.413   0.876   5.106 -1.2621  0.6234 -0.7412
  100DOPC   H2S13697   4.529   0.834   4.983  1.8814 -0.0932 -0.0875
  100DOPC    C313698   4.936   0.956   5.121 -0.3082 -1.1490  0.0978
  100DOPC    HX13699   4.964   0.874   5.052  0.4341 -0.7030 -0.1452
  100DOPC    HY13700   5.020   0.965   5.194 -0.6073  0.0193  0.3142
  100DOPC   O3113701   4.906   1.083   5.050 -0.2450 -0.4361  0.3548
  100DOPC   C3113702   4.972   1.108   4.937 -0.0279  0.3039 -0.4259
  100DOPC   O3213703   5.056   1.038   4.885  0.7518  0.0419 -0.1472
  100DOPC   C3213704   4.937   1.246   4.884  0.4855 -0.2848  0.5167
  100DOPC   H2X13705   5.021   1.319   4.894  0.7498 -0.3188 -1.2127
  100DOPC   H2Y13706   4.922   1.235   4.775 -0.6993  0.1835  0.6269
  100DOPC   C2313707   4.446   1.017   4.930 -0.0656  0.2533 -0.1810
  100DOPC   H3R13708   4.529   1.088   4.917  2.8040 -2.8728 -0.2946
  100DOPC   H3S13709   4.353   1.072   4.957 -0.3766 -0.1626 -0.3837
  100DOPC   C2413710   4.419   0.950   4.793 -0.0141 -0.0850  0.4368
  100DOPC   H4R13711   4.324   0.892   4.788  0.9354 -1.6099 -3.6502
  100DOPC   H4S13712   4.498   0.875   4.777  0.6569  0.7487 -0.2835
  100DOPC   C2513713   4.425   1.063   4.686  0.1121  0.5762  0.2863
  100DOPC   H5R13714   4.381   1.154   4.731  0.0782  0.5494  0.3076
  100DOPC   H5S13715   4.360   1.025   4.605  0.7671  1.3579 -0.6210
  100DOPC   C2613716   4.562   1.074   4.631  0.6964  0.1118  0.2718
  100DOPC   H6R13717   4.591   0.977   4.584 -1.2590 -0.8525  0.9425
  100DOPC   H6S13718   4.632   1.088   4.716 -0.9241 -0.5549  1.7899
  100DOPC   C2713719   4.577   1.191   4.534  0.1261  0.2114 -0.0028
  100DOPC   H7R13720   4.531   1.282   4.578  0.7120 -0.7050  2.6990
  100DOPC   H7S13721   4.527   1.169   4.437 -1.7286  2.3354  0.3954
  100DOPC   C2813722   4.724   1.224   4.491 -0.3078 -0.2598 -0.0273
  100DOPC   H8R13723   4.785   1.242   4.582  0.6100 -2.0771 -0.2363
  100DOPC   H8S13724   4.727   1.318   4.431  0.8494  0.1861  0.6971
  100DOPC   C2913725   4.791   1.116   4.416  0.9794  0.6765  0.3429
  100DOPC   H9R13726   4.792   1.021   4.472 -0.3758  0.6930  0.4295
  100DOPC  C21013727   4.837   1.120   4.289 -0.0647 -0.4212  0.0465
  100DOPC  H10R13728   4.897   1.039   4.246  1.6969  0.5045  0.6920
  100DOPC  C21113729   4.813   1.242   4.198 -0.0203  0.1579  0.6699
  100DOPC  H11R13730   4.904   1.305   4.189 -0.8348  1.5679  1.7917
  100DOPC  H11S13731   4.736   1.314   4.234 -1.6916  0.1048 -2.4821
  100DOPC  C21213732   4.752   1.209   4.059  0.1953 -0.4776 -0.1007
  100DOPC  H12R13733   4.731   1.307   4.009 -2.0879 -0.7272  0.2909
  100DOPC  H12S13734   4.656   1.159   4.082 -0.0696 -0.8370 -1.8605
  100DOPC  C21313735   4.852   1.129   3.966 -0.1246 -0.4453 -0.7382
  100DOPC  H13R13736   4.860   1.022   3.996 -1.9421 -0.5908 -0.6601
  100DOPC  H13S13737   4.941   1.195   3.965  0.2849 -0.9866 -0.6732
  100DOPC  C21413738   4.811   1.142   3.815  0.5370 -0.2061 -0.3075
  100DOPC  H14R13739   4.884   1.086   3.752  0.4212 -1.1537  0.3891
  100DOPC  H14S13740   4.808   1.251   3.792  0.7820 -0.0042  0.5663
  100DOPC  C21513741   4.677   1.080   3.798 -0.0254 -0.7291  0.6260
  100DOPC  H15R13742   4.597   1.146   3.837 -0.9305 -1.8667  0.7244
  100DOPC  H15S13743   4.672   0.978   3.841 -4.3431 -1.4494 -1.0723
  100DOPC  C21613744   4.630   1.063   3.653  0.0630 -0.3483 -0.8507
  100DOPC  H16R13745   4.697   0.990   3.603  0.9182 -1.7349  2.1202
  100DOPC  H16S13746   4.632   1.162   3.603 -0.2991 -1.3909 -3.0630
  100DOPC  C21713747   4.489   0.995   3.644  0.2285  0.0710 -0.1182
  100DOPC  H17R13748   4.420   1.049   3.713  1.6087 -0.2587  1.5922
  100DOPC  H17S13749   4.487   0.900   3.702 -0.7857  0.6129  0.7845
  100DOPC  C21813750   4.436   0.968   3.506 -0.3538  0.6572 -0.1831
  100DOPC  H18R13751   4.408   1.062   3.455  2.6172  0.7457 -1.8798
  100DOPC  H18S13752   4.343   0.906   3.507 -0.2886  0.5507  0.8540
  100DOPC  H18T13753   4.510   0.914   3.444  0.4753  0.6282  0.8038
  100DOPC   C3313754   4.808   1.306   4.946 -0.3520  0.2298 -0.5671
  100DOPC   H3X13755   4.851   1.377   5.020 -3.3927  0.4340  1.1350
  100DOPC   H3Y13756   4.735   1.242   5.000 -2.6431  2.9153 -0.2500
  100DOPC   C3413757   4.723   1.378   4.835  0.2035  0.4677 -0.6507
  100DOPC   H4X13758   4.669   1.319   4.757  2.6045 -0.5086 -1.6594
  100DOPC   H4Y13759   4.797   1.426   4.767 -0.3392 -0.2812 -1.8186
  100DOPC   C3513760   4.627   1.487   4.891 -0.5575  0.1856  0.5927
  100DOPC   H5X13761   4.667   1.539   4.981 -1.3402  0.6755  0.6614
  100DOPC   H5Y13762   4.526   1.444   4.908 -0.0221 -1.9631 -1.1773
  100DOPC   C3613763   4.612   1.605   4.788  0.2836  0.4525 -0.1016
  100DOPC   H6X13764   4.540   1.680   4.828  1.5241  1.5377  0.1829
  100DOPC   H6Y13765   4.712   1.653   4.775  1.1852 -1.5620 -1.0355
  100DOPC   C3713766   4.547   1.569   4.651  0.0333  0.6724  0.3389
  100DOPC   H7X13767   4.611   1.495   4.599  1.6595  1.6001  0.9295
  100DOPC   H7Y13768   4.452   1.518   4.680  0.6286 -1.0133 -0.5203
  100DOPC   C3813769   4.513   1.691   4.564  0.4490 -0.1223  0.0064
  100DOPC   H8X13770   4.480   1.771   4.634  2.7248  1.2927 -0.4499
  100DOPC   H8Y13771   4.428   1.679   4.494 -0.2386 -0.1939  0.8291
  100DOPC   C3913772   4.636   1.748   4.500  0.0291  0.1105  0.1684
  100DOPC   H9X13773   4.688   1.814   4.570  0.4973 -0.2239  0.1322
  100DOPC  C31013774   4.666   1.745   4.369  0.0648 -0.6961 -0.1470
  100DOPC  H10X13775   4.748   1.804   4.323 -2.2841  2.0068 -1.1742
  100DOPC  C31113776   4.604   1.668   4.262 -0.3079 -0.0108  0.1285
  100DOPC  H11X13777   4.493   1.660   4.261 -0.2813 -1.9695 -3.3967
  100DOPC  H11Y13778   4.631   1.562   4.277 -1.4285 -0.4291 -0.6316
  100DOPC  C31213779   4.633   1.721   4.125 -0.8227 -0.6596 -0.0121
  100DOPC  H12X13780   4.622   1.831   4.122  0.0121 -0.3808  3.3412
  100DOPC  H12Y13781   4.557   1.690   4.050  0.3572  0.2494 -1.6411
  100DOPC  C31313782   4.763   1.660   4.064  0.1625  0.0119 -0.5507
  100DOPC  H13X13783   4.841   1.717   4.117 -0.7887  1.2447 -0.4397
  100DOPC  H13Y13784   4.777   1.555   4.099  0.6448  0.6006  1.1409
  100DOPC  C31413785   4.794   1.687   3.911 -0.0192  0.1260  0.0833
  100DOPC  H14X13786   4.726   1.623   3.852  1.1755 -0.5722 -0.5785
  100DOPC  H14Y13787   4.769   1.793   3.886  0.0132  0.3427  0.9256
  100DOPC  C31513788   4.931   1.652   3.871 -0.5105 -0.1536  0.1523
  100DOPC  H15X13789   4.940   1.541   3.874  0.1666 -0.1373 -0.9105
  100DOPC  H15Y13790   5.012   1.693   3.934  1.4884 -0.7109 -1.9419
  100DOPC  C31613791   4.952   1.677   3.718 -0.0863 -0.0356  0.1997
  100DOPC  H16X13792   5.032   1.617   3.671 -0.2815 -0.6913  0.6950
  100DOPC  H16Y13793   4.860   1.639   3.670 -0.6299  0.0941  1.1149
  100DOPC  C31713794   4.977   1.822   3.667  0.1746 -0.5035  0.4592
  100DOPC  H17X13795   4.899   1.887   3.711 -0.2122 -1.1460  0.7428
  100DOPC  H17Y13796   5.073   1.855   3.713 -0.6736  0.9928  1.2127
  100DOPC  C31813797   4.986   1.838   3.511 -0.1676 -0.2719  0.0464
  100DOPC  H18X13798   4.887   1.832   3.461 -0.8678  1.6484  1.0850
  100DOPC  H18Y13799   5.034   1.937   3.493 -1.1233  0.0034 -1.1533
  100DOPC  H18Z13800   5.054   1.765   3.463 -0.1138 -0.6746  0.7184
  101DOPC     N13801   7.948   5.676   1.790  0.0093  0.4540  0.0492
  101DOPC   C1213802   7.860   5.742   1.898  0.3485 -0.2530  1.0641
  101DOPC  H12A13803   7.755   5.735   1.872  1.0943 -2.3169 -1.9919
  101DOPC  H12B13804   7.881   5.846   1.882  1.5364 -0.7376 -0.9240
  101DOPC   C1313805   8.097   5.683   1.825  0.3652  0.1311  0.1836
  101DOPC  H13A13806   8.120   5.653   1.926  0.4580  2.0460  0.7720
  101DOPC  H13B13807   8.164   5.632   1.757 -1.4023 -1.5099 -0.4074
  101DOPC  H13C13808   8.119   5.788   1.813 -0.5206  0.5547  1.9154
  101DOPC   C1413809   7.925   5.748   1.657 -0.5953 -0.2975 -0.2878
  101DOPC  H14A13810   7.948   5.852   1.669 -1.4179 -0.1115 -0.2778
  101DOPC  H14B13811   7.990   5.711   1.578  0.1904  0.8918 -0.2191
  101DOPC  H14C13812   7.824   5.737   1.623 -1.2175  2.9228  0.2446
  101DOPC   C1513813   7.918   5.531   1.762  0.5328  0.2609  0.5894
  101DOPC  H15A13814   7.940   5.465   1.845  0.0080 -0.0029  0.5219
  101DOPC  H15B13815   7.990   5.494   1.691  0.8781  2.1003 -0.0721
  101DOPC  H15C13816   7.815   5.526   1.730  0.3560  1.3414  0.9301
  101DOPC   C1113817   7.871   5.689   2.044  0.0147 -0.1158 -0.3933
  101DOPC  H11A13818   7.977   5.694   2.076 -0.4604  0.7017  1.1587
  101DOPC  H11B13819   7.816   5.747   2.121  2.6312 -1.0903  2.4470
  101DOPC     P13820   7.688   5.510   2.052 -0.1120 -0.1184  0.2766
  101DOPC   O1313821   7.670   5.365   2.018  0.6058  0.0658  0.2708
  101DOPC   O1413822   7.599   5.615   1.991 -0.0573  0.0741 -0.0349
  101DOPC   O1213823   7.831   5.553   2.048  0.0975  0.6961  0.1418
  101DOPC   O1113824   7.640   5.537   2.200 -0.1814  0.5806 -0.3367
  101DOPC    C113825   7.723   5.494   2.303 -0.1871 -0.1474  0.0632
  101DOPC    HA13826   7.832   5.497   2.284  0.2901  1.4807  2.6092
  101DOPC    HB13827   7.705   5.388   2.334  1.5495 -0.1017  1.3780
  101DOPC    C213828   7.714   5.578   2.431 -0.0313 -0.6046  0.6943
  101DOPC    HS13829   7.615   5.551   2.473  0.7769 -2.2959  1.6325
  101DOPC   O2113830   7.732   5.720   2.405  0.0601  0.2037  0.8995
  101DOPC   C2113831   7.618   5.790   2.390  0.2493  0.0201  0.1820
  101DOPC   O2213832   7.508   5.740   2.392 -0.1839 -0.2654  0.4662
  101DOPC   C2213833   7.643   5.947   2.376 -1.2818  0.3762 -0.0356
  101DOPC   H2R13834   7.543   5.988   2.351 -2.4053 -2.4111 -0.4269
  101DOPC   H2S13835   7.715   5.954   2.291 -1.5677  2.1097 -0.1746
  101DOPC    C313836   7.825   5.540   2.535  0.1040  0.0343  0.0373
  101DOPC    HX13837   7.816   5.587   2.635  0.6011 -2.2042  1.1965
  101DOPC    HY13838   7.924   5.559   2.488  1.1909 -1.9879  1.3878
  101DOPC   O3113839   7.821   5.402   2.556  0.3291 -0.1211 -0.4848
  101DOPC   C3113840   7.723   5.343   2.623 -0.2864 -0.7240  1.2756
  101DOPC   O3213841   7.643   5.396   2.695  0.3013  0.7400 -0.1976
  101DOPC   C3213842   7.738   5.188   2.612 -0.8517 -0.8717  0.7034
  101DOPC   H2X13843   7.688   5.155   2.519 -0.6919 -0.1071  0.3409
  101DOPC   H2Y13844   7.844   5.156   2.600 -1.4936 -3.0895  0.4135
  101DOPC   C2313845   7.688   6.020   2.502 -0.0337  0.6441  0.1155
  101DOPC   H3R13846   7.637   5.993   2.597  1.3543  0.8097  0.9368
  101DOPC   H3S13847   7.689   6.130   2.490 -4.0224  0.7674 -0.2973
  101DOPC   C2413848   7.832   5.978   2.544 -0.2190  0.6650 -0.4162
  101DOPC   H4R13849   7.899   5.982   2.455 -0.9257 -0.2960 -1.0095
  101DOPC   H4S13850   7.818   5.872   2.573 -1.4870  0.9876  0.2132
  101DOPC   C2513851   7.890   6.053   2.665 -0.2659  0.6432 -0.2291
  101DOPC   H5R13852   7.814   6.052   2.746  1.0579 -2.6651  1.1323
  101DOPC   H5S13853   7.921   6.157   2.641 -0.1145  0.4594 -0.8520
  101DOPC   C2613854   8.013   5.982   2.722 -0.3578 -0.9515 -0.5815
  101DOPC   H6R13855   8.091   5.990   2.643 -1.1738  1.0676 -1.2529
  101DOPC   H6S13856   7.996   5.875   2.746  1.2888 -0.6491  2.3370
  101DOPC   C2713857   8.072   6.049   2.847 -0.8022 -0.1208 -0.0214
  101DOPC   H7R13858   8.131   6.141   2.826 -0.1619 -0.5034  0.1047
  101DOPC   H7S13859   8.145   5.975   2.885 -2.2847  0.2286  3.9834
  101DOPC   C2813860   7.974   6.074   2.958 -0.2026  0.4015  0.3640
  101DOPC   H8R13861   7.915   6.165   2.935  0.2354  0.6251  0.1065
  101DOPC   H8S13862   8.039   6.108   3.042  1.3018 -2.3784  0.4330
  101DOPC   C2913863   7.893   5.959   3.008  0.3500 -0.4963 -0.2670
  101DOPC   H9R13864   7.791   5.963   2.966 -0.0086 -0.1594  0.6222
  101DOPC  C21013865   7.932   5.852   3.072  0.7083 -0.4650 -0.7516
  101DOPC  H10R13866   7.864   5.773   3.106 -1.2644  1.4053 -0.1118
  101DOPC  C21113867   8.071   5.830   3.122  0.6187 -0.0162  0.3475
  101DOPC  H11R13868   8.067   5.884   3.218 -0.2916  0.2668  0.1600
  101DOPC  H11S13869   8.155   5.876   3.066 -0.3809  2.1381  0.5136
  101DOPC  C21213870   8.121   5.691   3.144  0.4634  0.0615  0.3963
  101DOPC  H12R13871   8.043   5.639   3.205 -0.3083  0.2332 -0.4240
  101DOPC  H12S13872   8.219   5.704   3.193  0.5821  1.9089 -0.2764
  101DOPC  C21313873   8.157   5.623   3.015  0.5496  0.4037 -0.2750
  101DOPC  H13R13874   8.227   5.539   3.037  1.6406  0.2636 -3.6515
  101DOPC  H13S13875   8.204   5.700   2.949  1.7861  0.5313  0.7116
  101DOPC  C21413876   8.045   5.550   2.938 -1.2296 -0.2268 -0.2177
  101DOPC  H14R13877   7.964   5.609   2.891 -0.2620  0.3360 -1.2316
  101DOPC  H14S13878   7.998   5.482   3.013  1.1346 -2.3826 -0.5417
  101DOPC  C21513879   8.113   5.465   2.824  0.3291  0.6605 -0.5473
  101DOPC  H15R13880   8.033   5.407   2.773  0.7985 -0.6271  0.1284
  101DOPC  H15S13881   8.188   5.390   2.858 -1.7299 -1.9625 -1.3966
  101DOPC  C21613882   8.176   5.550   2.712 -0.0696  0.1408 -0.4905
  101DOPC  H16R13883   8.244   5.625   2.757 -1.6504  1.6733 -0.5344
  101DOPC  H16S13884   8.110   5.615   2.650  0.9177  2.6087  0.8853
  101DOPC  C21713885   8.241   5.468   2.596  0.0949 -0.0348 -0.4188
  101DOPC  H17R13886   8.167   5.412   2.534  2.0362 -0.8707 -2.0950
  101DOPC  H17S13887   8.293   5.384   2.647 -3.3618 -2.7799 -0.9719
  101DOPC  C21813888   8.327   5.557   2.504 -0.4185  0.1325  0.7008
  101DOPC  H18R13889   8.268   5.636   2.454 -0.5746  0.8796  2.0203
  101DOPC  H18S13890   8.395   5.510   2.429  1.5054  1.3130  1.6082
  101DOPC  H18T13891   8.397   5.613   2.571  0.3058  0.2362 -0.1227
  101DOPC   C3313892   7.679   5.115   2.738 -0.0346 -0.0654  0.0643
  101DOPC   H3X13893   7.690   5.006   2.723  0.2148 -0.0388  0.0491
  101DOPC   H3Y13894   7.569   5.121   2.743 -0.2513 -1.2693 -2.1269
  101DOPC   C3413895   7.737   5.152   2.873 -0.4408  0.0710  0.4896
  101DOPC   H4X13896   7.705   5.256   2.898 -1.4403  0.2299 -1.2499
  101DOPC   H4Y13897   7.847   5.167   2.882 -0.2757 -0.9740  0.3246
  101DOPC   C3513898   7.687   5.059   2.985 -0.0526 -0.1967  0.0823
  101DOPC   H5X13899   7.761   4.976   2.993  0.7790  0.6387  1.5843
  101DOPC   H5Y13900   7.592   5.019   2.944  0.2040 -0.2159 -0.4981
  101DOPC   C3613901   7.667   5.142   3.117 -0.7508  0.0265 -0.1249
  101DOPC   H6X13902   7.758   5.185   3.163 -0.3799  1.5608 -2.1849
  101DOPC   H6Y13903   7.594   5.223   3.094  0.0385  1.1687  1.2060
  101DOPC   C3713904   7.596   5.064   3.228 -0.1589 -0.0180  0.6154
  101DOPC   H7X13905   7.564   5.137   3.305 -2.3374 -1.7087  1.3920
  101DOPC   H7Y13906   7.505   5.013   3.189 -0.5796  0.9584  0.2684
  101DOPC   C3813907   7.676   4.954   3.306  0.3283  0.4140  0.0164
  101DOPC   H8X13908   7.686   4.879   3.224 -3.2608  0.8749 -1.0123
  101DOPC   H8Y13909   7.618   4.930   3.397  1.0926  0.8278  0.6248
  101DOPC   C3913910   7.807   5.000   3.363 -0.1721  0.2011  0.4081
  101DOPC   H9X13911   7.823   5.109   3.361  0.2315  0.1399 -0.6758
  101DOPC  C31013912   7.901   4.916   3.421  0.2313 -0.0901  0.4324
  101DOPC  H10X13913   7.999   4.966   3.429 -0.4988  2.0404 -2.2063
  101DOPC  C31113914   7.881   4.768   3.443 -0.0037 -0.4997  0.5770
  101DOPC  H11X13915   7.814   4.719   3.369  0.0991 -0.8559  0.7132
  101DOPC  H11Y13916   7.836   4.757   3.544  0.5506  2.4293  1.2271
  101DOPC  C31213917   8.013   4.695   3.449 -0.6370 -0.0245  0.3446
  101DOPC  H12X13918   8.084   4.757   3.507  0.2155 -0.4944 -0.1664
  101DOPC  H12Y13919   8.054   4.674   3.347 -1.4461 -1.8740  0.3592
  101DOPC  C31313920   8.004   4.564   3.528 -0.2119  0.4698  0.5104
  101DOPC  H13X13921   7.999   4.582   3.637 -0.0203 -0.8274  0.7547
  101DOPC  H13Y13922   7.918   4.509   3.485 -1.2832  2.4397  0.0455
  101DOPC  C31413923   8.135   4.479   3.507 -0.0591 -0.2586  0.1690
  101DOPC  H14X13924   8.166   4.468   3.401 -0.1168 -2.6715  0.3406
  101DOPC  H14Y13925   8.212   4.545   3.551 -0.2093  0.8310 -1.1220
  101DOPC  C31513926   8.124   4.333   3.565 -0.5117 -0.8413  0.4048
  101DOPC  H15X13927   8.069   4.263   3.498 -1.2931  0.2495 -0.1204
  101DOPC  H15Y13928   8.072   4.341   3.663 -1.3412  1.7998 -0.1701
  101DOPC  C31613929   8.260   4.259   3.585 -0.1799 -0.1387 -0.2304
  101DOPC  H16X13930   8.251   4.153   3.615  1.9237 -0.1409  0.5616
  101DOPC  H16Y13931   8.329   4.263   3.498  0.3472 -0.3285  0.1701
  101DOPC  C31713932   8.349   4.314   3.704 -0.8087 -0.1808  0.2203
  101DOPC  H17X13933   8.457   4.294   3.686 -0.6318  0.7671  0.1952
  101DOPC  H17Y13934   8.328   4.423   3.710 -0.8690 -0.2035  0.4306
  101DOPC  C31813935   8.294   4.262   3.837  0.4861 -0.0336  0.3892
  101DOPC  H18X13936   8.304   4.152   3.847  1.9579 -0.2868 -2.5948
  101DOPC  H18Y13937   8.353   4.311   3.918 -1.3043 -0.8149  2.2627
  101DOPC  H18Z13938   8.189   4.291   3.855  0.5437 -0.1658  0.9741
  102DOPC     N13939   7.860   4.122   1.457 -0.5176 -0.2418 -0.0188
  102DOPC   C1213940   7.934   4.066   1.582 -0.4428  0.8503  0.2538
  102DOPC  H12A13941   8.027   4.019   1.553 -0.8694  1.2272 -1.8833
  102DOPC  H12B13942   7.866   3.995   1.626 -0.4802 -0.3698 -1.6792
  102DOPC   C1313943   7.842   4.011   1.365  0.8532  0.7507 -0.2908
  102DOPC  H13A13944   7.770   3.935   1.393  1.3493  0.3795 -0.0163
  102DOPC  H13B13945   7.803   4.030   1.266  0.8182  0.6838 -0.2908
  102DOPC  H13C13946   7.939   3.965   1.350  1.8135  2.4703  0.4210
  102DOPC   C1413947   7.945   4.220   1.385  0.0256 -0.1147  0.7521
  102DOPC  H14A13948   8.012   4.161   1.324 -0.5581  0.5575 -0.5839
  102DOPC  H14B13949   7.884   4.285   1.325 -1.5276  2.3585  4.6226
  102DOPC  H14C13950   8.004   4.287   1.446  1.0647  1.5873 -1.9345
  102DOPC   C1513951   7.730   4.187   1.488 -0.2594  0.0674  0.1962
  102DOPC  H15A13952   7.688   4.238   1.402  1.1498  2.9185  1.0702
  102DOPC  H15B13953   7.741   4.273   1.552  0.2054 -1.5594  2.4279
  102DOPC  H15C13954   7.655   4.126   1.536  1.2203 -1.5060  0.5919
  102DOPC   C1113955   7.977   4.171   1.694 -0.0371  0.1913  0.2906
  102DOPC  H11A13956   7.880   4.219   1.720  0.3327  1.1570 -0.0736
  102DOPC  H11B13957   8.011   4.117   1.785 -0.0358 -1.0257 -0.4140
  102DOPC     P13958   8.226   4.222   1.671  0.2601  0.0182 -0.0278
  102DOPC   O1313959   8.309   4.315   1.590 -0.1542 -0.0084 -0.0359
  102DOPC   O1413960   8.237   4.082   1.636  0.3317 -0.2606  0.0757
  102DOPC   O1213961   8.073   4.269   1.659 -0.3755  0.0235 -0.1788
  102DOPC   O1113962   8.256   4.248   1.823  0.4672  0.2484 -0.3848
  102DOPC    C113963   8.243   4.384   1.877  0.1505  1.0143  0.6195
  102DOPC    HA13964   8.147   4.428   1.842 -0.3928 -0.8780 -0.4485
  102DOPC    HB13965   8.325   4.447   1.837  1.0036 -0.0357  0.6491
  102DOPC    C213966   8.249   4.386   2.035  0.5135 -0.0738 -0.1577
  102DOPC    HS13967   8.240   4.492   2.068 -1.1241 -0.1489 -0.2721
  102DOPC   O2113968   8.376   4.336   2.086 -0.5833 -0.2719  0.2392
  102DOPC   C2113969   8.483   4.413   2.054 -1.0183  0.5702 -0.6312
  102DOPC   O2213970   8.482   4.518   2.002  0.1196 -0.0858 -0.3196
  102DOPC   C2213971   0.074   4.332   2.079 -0.2489 -0.1944 -0.0789
  102DOPC   H2R13972   0.101   4.276   1.987  1.7049  0.1620  0.2395
  102DOPC   H2S13973   0.062   4.253   2.156  3.9029  0.4144  1.4139
  102DOPC    C313974   8.130   4.308   2.091 -0.3813  0.2626 -0.0703
  102DOPC    HX13975   8.172   4.205   2.080  1.7620  1.0532  0.3149
  102DOPC    HY13976   8.036   4.323   2.033 -1.2233  1.7047  1.5992
  102DOPC   O3113977   8.096   4.346   2.227  0.6439 -0.5437 -0.1202
  102DOPC   C3113978   7.991   4.278   2.270 -0.0687 -0.1755  0.8785
  102DOPC   O3213979   7.943   4.179   2.213  0.0220 -0.5529  0.0015
  102DOPC   C3213980   7.945   4.318   2.404  0.2177  0.1480 -0.4555
  102DOPC   H2X13981   7.881   4.408   2.399 -1.0926 -0.7389 -0.3575
  102DOPC   H2Y13982   7.892   4.225   2.434  1.1588 -1.0957 -2.4288
  102DOPC   C2313983   0.204   4.409   2.113  0.0930 -0.4786 -0.0291
  102DOPC   H3R13984   0.224   4.498   2.049 -0.7832  0.1788  0.5782
  102DOPC   H3S13985   0.281   4.331   2.095 -1.6213 -1.7830 -2.1430
  102DOPC   C2413986   0.230   4.463   2.253 -0.0187 -0.0466 -0.1343
  102DOPC   H4R13987   0.330   4.507   2.275 -1.3958  2.1948  2.2486
  102DOPC   H4S13988   0.217   4.376   2.320 -0.0868 -0.7592 -1.0597
  102DOPC   C2513989   0.120   4.561   2.286 -0.1570  0.4313 -0.4373
  102DOPC   H5R13990   0.023   4.507   2.282 -1.2960  2.4419 -1.5983
  102DOPC   H5S13991   0.122   4.639   2.207 -0.1887  1.0079  0.1177
  102DOPC   C2613992   0.143   4.631   2.419 -0.7829  0.1055 -0.2339
  102DOPC   H6R13993   0.246   4.635   2.460 -0.9312  0.5912  0.0951
  102DOPC   H6S13994   0.080   4.572   2.488 -0.3737  0.7733  0.7284
  102DOPC   C2713995   0.093   4.780   2.412 -0.0592  0.0869 -0.3916
  102DOPC   H7R13996   8.522   4.779   2.379 -1.2466 -2.5822  2.9346
  102DOPC   H7S13997   0.163   4.838   2.347  0.2966  0.6232  0.4424
  102DOPC   C2813998   0.084   4.838   2.559  0.3172  0.1235  0.4018
  102DOPC   H8R13999   0.018   4.767   2.613  0.3139 -1.1837 -1.2567
  102DOPC   H8S14000   0.033   4.937   2.569  1.2943  0.6546  0.2942
  102DOPC   C2914001   0.215   4.846   2.624  1.0066  0.0180 -0.0127
  102DOPC   H9R14002   0.276   4.937   2.613 -0.5195  1.5960  3.2585
  102DOPC  C21014003   0.266   4.758   2.708 -0.6477 -0.0320  0.0958
  102DOPC  H10R14004   0.363   4.792   2.747 -0.2412  0.4712 -1.2788
  102DOPC  C21114005   0.208   4.627   2.759 -0.0918  0.2273 -0.8899
  102DOPC  H11R14006   0.265   4.532   2.753  0.9897  0.5895  1.9490
  102DOPC  H11S14007   0.117   4.606   2.699  0.4484  3.2730 -3.0479
  102DOPC  C21214008   0.158   4.640   2.906  0.1528  0.7235  0.6632
  102DOPC  H12R14009   0.110   4.544   2.932  1.2295  0.1405  0.5648
  102DOPC  H12S14010   0.079   4.718   2.912  0.1078  0.7029  0.3861
  102DOPC  C21314011   0.251   4.687   3.014 -0.0282 -0.3353 -0.4393
  102DOPC  H13R14012   0.207   4.651   3.109 -1.8896  0.1428 -1.0713
  102DOPC  H13S14013   0.272   4.795   2.996  0.5880 -0.7072 -2.1320
  102DOPC  C21414014   0.390   4.616   3.012  0.1906  0.1805  0.1972
  102DOPC  H14R14015   0.447   4.657   2.926  1.6127  1.7001  1.7858
  102DOPC  H14S14016   0.379   4.506   3.000  4.0351 -0.5849  2.2221
  102DOPC  C21514017   0.473   4.651   3.137  0.9454 -0.5466  0.0145
  102DOPC  H15R14018   0.429   4.628   3.236  0.6464  3.5198  0.9765
  102DOPC  H15S14019   0.479   4.761   3.145  1.9371 -0.5697 -0.2748
  102DOPC  C21614020   0.617   4.604   3.134 -0.4299  0.1064  0.4621
  102DOPC  H16R14021   0.661   4.636   3.036  0.3495  0.5197  0.9341
  102DOPC  H16S14022   0.617   4.494   3.125  0.5319  0.1173  0.1585
  102DOPC  C21714023   0.699   4.650   3.247  0.5782 -0.1547  0.4908
  102DOPC  H17R14024   0.643   4.636   3.342 -1.3170 -1.2980 -0.7297
  102DOPC  H17S14025   0.705   4.760   3.231 -2.5031  0.4613  2.6422
  102DOPC  C21814026   0.839   4.592   3.251 -0.1837  0.1160 -0.3299
  102DOPC  H18R14027   0.835   4.490   3.297  2.3275 -1.0046 -2.3197
  102DOPC  H18S14028   0.910   4.661   3.301  1.1269  0.0256 -1.9809
  102DOPC  H18T14029   0.884   4.580   3.150  0.5125  0.3370 -0.0563
  102DOPC   C3314030   8.066   4.338   2.503  0.4659  0.1196 -0.0317
  102DOPC   H3X14031   8.121   4.432   2.482  1.4653 -0.6988 -1.2269
  102DOPC   H3Y14032   8.149   4.266   2.488  0.2277 -0.0111 -0.7754
  102DOPC   C3414033   8.011   4.341   2.647 -0.7583 -0.3805  0.2778
  102DOPC   H4X14034   7.946   4.251   2.653  0.8574 -1.6999 -0.9995
  102DOPC   H4Y14035   7.953   4.431   2.675 -2.1027 -0.9462 -0.6288
  102DOPC   C3514036   8.113   4.308   2.762  0.0787 -0.3041  0.9167
  102DOPC   H5X14037   8.189   4.390   2.759  0.0662 -0.2976  0.7824
  102DOPC   H5Y14038   8.165   4.214   2.737  2.1373  1.1965 -0.8121
  102DOPC   C3614039   8.054   4.288   2.901 -0.5794  0.1994 -0.5433
  102DOPC   H6X14040   8.019   4.387   2.938 -0.4385 -0.3537  1.1556
  102DOPC   H6Y14041   7.969   4.220   2.882 -0.3851  0.3606 -2.1241
  102DOPC   C3714042   8.148   4.230   3.006 -0.1327 -0.2015 -0.7325
  102DOPC   H7X14043   8.171   4.128   2.969 -1.0853 -0.9637  0.6893
  102DOPC   H7Y14044   8.236   4.298   3.010 -0.0634 -0.2726  3.3759
  102DOPC   C3814045   8.090   4.228   3.151  0.3237 -0.4000  0.0196
  102DOPC   H8X14046   8.085   4.331   3.192 -1.4626  0.1178 -1.3658
  102DOPC   H8Y14047   8.169   4.177   3.209  0.6700  1.4258  1.2034
  102DOPC   C3914048   7.963   4.144   3.178  0.9834  0.1393 -0.4012
  102DOPC   H9X14049   7.862   4.184   3.158  0.3506 -1.2732 -0.1462
  102DOPC  C31014050   7.958   4.016   3.216 -0.3961  1.3319  0.2757
  102DOPC  H10X14051   7.864   3.964   3.237 -1.1040  3.3955  2.7555
  102DOPC  C31114052   8.084   3.929   3.238  0.1508 -0.4277 -0.2338
  102DOPC  H11X14053   8.177   3.983   3.212 -0.7222  0.9307 -0.6798
  102DOPC  H11Y14054   8.079   3.853   3.156 -1.8207  0.6038 -1.1513
  102DOPC  C31214055   8.092   3.861   3.376  0.3924  0.6111 -0.6397
  102DOPC  H12X14056   8.017   3.779   3.384  1.2499  0.0076  4.0433
  102DOPC  H12Y14057   8.072   3.939   3.453 -3.2271 -0.0832 -0.7114
  102DOPC  C31314058   8.228   3.789   3.411  0.1122  0.3744 -0.2150
  102DOPC  H13X14059   8.222   3.739   3.510 -2.3875  0.1546 -0.4187
  102DOPC  H13Y14060   8.255   3.713   3.335  0.2669 -0.7570  0.9263
  102DOPC  C31414061   8.351   3.875   3.405  0.1799 -0.4883  1.1448
  102DOPC  H14X14062   8.381   3.906   3.303  0.4881 -1.2578  0.9913
  102DOPC  H14Y14063   8.333   3.971   3.458 -0.2512 -0.2468  0.5657
  102DOPC  C31514064   8.473   3.812   3.480  0.0245  0.0679  0.2909
  102DOPC  H15X14065   8.494   3.719   3.422 -0.1820 -0.5991  1.2726
  102DOPC  H15Y14066   8.448   3.793   3.586  3.0109 -1.0299  0.8989
  102DOPC  C31614067   0.057   3.908   3.458 -0.6291  0.7107 -0.1212
  102DOPC  H16X14068   0.151   3.853   3.477 -1.5841 -0.3242  1.8613
  102DOPC  H16Y14069   0.079   3.935   3.352  0.5294 -0.6494 -0.2513
  102DOPC  C31714070   0.056   4.021   3.564 -0.4429 -0.4156  0.1460
  102DOPC  H17X14071   8.501   4.086   3.553  0.5874  1.1166  0.3568
  102DOPC  H17Y14072   0.034   3.981   3.665 -0.2167 -2.8141 -0.7010
  102DOPC  C31814073   0.187   4.104   3.563 -0.3231  0.6652  0.5269
  102DOPC  H18X14074   0.169   4.194   3.627  0.0009  0.5381  0.7998
  102DOPC  H18Y14075   0.281   4.049   3.585 -0.7533 -0.7511 -0.9610
  102DOPC  H18Z14076   0.203   4.140   3.460  0.7895 -1.0770  0.0471
  103DOPC     N14077   2.039   4.181   0.841 -0.2043  0.6904 -0.6680
  103DOPC   C1214078   2.181   4.161   0.807 -1.1582 -0.7312  0.0297
  103DOPC  H12A14079   2.245   4.141   0.891  0.3192 -1.3307 -1.1885
  103DOPC  H12B14080   2.214   4.253   0.760 -2.4042 -0.5049 -0.4481
  103DOPC   C1314081   1.979   4.062   0.928 -0.2655  0.0368  0.1180
  103DOPC  H13A14082   1.982   3.964   0.883  0.3445 -0.0912  0.4352
  103DOPC  H13B14083   2.037   4.054   1.019 -1.3100  1.5092  0.9540
  103DOPC  H13C14084   1.872   4.066   0.941 -0.2647 -1.6666  0.8988
  103DOPC   C1414085   1.949   4.196   0.721  0.6013  0.2228 -0.3137
  103DOPC  H14A14086   1.844   4.198   0.746  0.3077  0.4263 -1.5034
  103DOPC  H14B14087   1.962   4.294   0.677  0.0245  0.9699  1.1022
  103DOPC  H14C14088   1.973   4.114   0.655  2.8294 -0.4971  1.2462
  103DOPC   C1514089   2.028   4.303   0.927  0.3146 -0.6875  0.1951
  103DOPC  H15A14090   1.928   4.308   0.967 -0.5508 -0.3409 -1.8834
  103DOPC  H15B14091   2.046   4.390   0.866  0.3367  1.3535  2.9015
  103DOPC  H15C14092   2.094   4.303   1.013 -0.7443 -0.2552  1.0333
  103DOPC   C1114093   2.212   4.038   0.711  0.0866 -0.4551 -0.2000
  103DOPC  H11A14094   2.158   4.056   0.615  0.5684  1.3565 -0.1780
  103DOPC  H11B14095   2.322   4.046   0.693  0.6772 -1.4426  2.5080
  103DOPC     P14096   2.253   3.836   0.875  0.2398  0.0904  0.3294
  103DOPC   O1314097   2.377   3.781   0.809  0.0931  0.3679  0.2204
  103DOPC   O1414098   2.167   3.744   0.945 -0.3328 -0.0590  0.0363
  103DOPC   O1214099   2.171   3.914   0.765  0.5927  0.3319 -0.1320
  103DOPC   O1114100   2.280   3.953   0.980 -0.1388  0.0826  0.5451
  103DOPC    C114101   2.409   4.014   0.993  0.8018  0.2655 -0.9488
  103DOPC    HA14102   2.390   4.119   1.026  0.6741 -0.1813  0.4746
  103DOPC    HB14103   2.473   3.998   0.904  1.1457 -2.2596 -0.3131
  103DOPC    C214104   2.494   3.949   1.106 -0.0494 -0.6032  0.1267
  103DOPC    HS14105   2.525   3.851   1.065  0.8631  0.1320 -1.0103
  103DOPC   O2114106   2.431   3.945   1.234  0.5501 -0.1790  0.2890
  103DOPC   C2114107   2.467   3.831   1.300  0.2042 -0.3693 -0.1133
  103DOPC   O2214108   2.543   3.746   1.257 -0.1234 -0.2226  0.2108
  103DOPC   C2214109   2.416   3.841   1.440  0.1990 -0.9124 -0.4223
  103DOPC   H2R14110   2.323   3.901   1.453 -0.1286 -1.7611  1.5795
  103DOPC   H2S14111   2.493   3.896   1.498 -1.4234  2.1372 -0.9524
  103DOPC    C314112   2.620   4.038   1.123  0.2906 -0.0984 -0.4292
  103DOPC    HX14113   2.599   4.142   1.154  1.8121 -0.1162  0.7990
  103DOPC    HY14114   2.672   4.054   1.026  0.7658 -0.2802 -0.2103
  103DOPC   O3114115   2.718   3.974   1.203 -0.0150 -0.6004 -0.4226
  103DOPC   C3114116   2.726   4.005   1.332  0.2710 -0.5010  0.2309
  103DOPC   O3214117   2.654   4.082   1.391  0.0637  0.3001  0.4303
  103DOPC   C3214118   2.826   3.916   1.391 -0.4461 -0.2999 -0.6673
  103DOPC   H2X14119   2.788   3.812   1.382  0.5696 -1.0644  2.5262
  103DOPC   H2Y14120   2.924   3.928   1.339  1.0961 -1.9360  1.6809
  103DOPC   C2314121   2.391   3.703   1.513  0.6141 -0.4943  0.5037
  103DOPC   H3R14122   2.488   3.657   1.540  0.9666  0.9342  1.8059
  103DOPC   H3S14123   2.356   3.625   1.442 -2.2939  2.2695 -1.4029
  103DOPC   C2414124   2.307   3.723   1.641  0.0742 -1.1350  0.4335
  103DOPC   H4R14125   2.206   3.754   1.607  0.8899  1.2281  0.0442
  103DOPC   H4S14126   2.360   3.798   1.702 -0.7689 -0.3645  0.2365
  103DOPC   C2514127   2.305   3.596   1.728  0.2638 -0.4978  0.6417
  103DOPC   H5R14128   2.407   3.587   1.772  1.8566  0.9108 -2.4980
  103DOPC   H5S14129   2.280   3.506   1.668 -2.0755 -1.0170  2.2366
  103DOPC   C2614130   2.203   3.610   1.838  0.0460  0.4827 -0.2157
  103DOPC   H6R14131   2.110   3.629   1.781  0.1547 -0.3838 -0.6930
  103DOPC   H6S14132   2.215   3.695   1.909 -0.3462 -0.6946  1.3191
  103DOPC   C2714133   2.187   3.476   1.920  0.1696 -0.2074 -0.5279
  103DOPC   H7R14134   2.291   3.441   1.939  0.3337  0.2628 -0.5242
  103DOPC   H7S14135   2.137   3.400   1.856 -0.6513  0.2904 -0.4891
  103DOPC   C2814136   2.115   3.489   2.057 -0.1680 -0.5929  0.1749
  103DOPC   H8R14137   2.009   3.509   2.029  0.4105  1.1358 -0.9191
  103DOPC   H8S14138   2.151   3.581   2.108 -0.4633 -1.8289  2.7653
  103DOPC   C2914139   2.124   3.372   2.155  0.0911  0.2360  1.3344
  103DOPC   H9R14140   2.087   3.279   2.111  2.8425  0.5699 -2.1293
  103DOPC  C21014141   2.165   3.364   2.278  0.0294 -0.3410 -0.3135
  103DOPC  H10R14142   2.164   3.266   2.326  2.7020 -1.1906 -1.7810
  103DOPC  C21114143   2.207   3.482   2.359  0.2604  0.2901 -0.6586
  103DOPC  H11R14144   2.217   3.565   2.286  1.6142 -0.9801 -1.9891
  103DOPC  H11S14145   2.312   3.469   2.391 -0.3591 -1.5950  0.8518
  103DOPC  C21214146   2.123   3.523   2.475 -0.9193  0.3120  0.7243
  103DOPC  H12R14147   2.134   3.455   2.562 -2.1699  1.9079  2.2158
  103DOPC  H12S14148   2.013   3.530   2.459 -0.6582  2.5595 -0.5740
  103DOPC  C21314149   2.155   3.665   2.532  0.0752  0.1994  0.1762
  103DOPC  H13R14150   2.127   3.745   2.461 -2.0458 -0.8542 -0.2599
  103DOPC  H13S14151   2.265   3.680   2.538  0.5952 -2.7041 -0.2410
  103DOPC  C21414152   2.082   3.700   2.656 -0.6882 -0.2476  0.2132
  103DOPC  H14R14153   2.142   3.668   2.743  2.3689  2.4596 -0.7039
  103DOPC  H14S14154   1.983   3.651   2.651 -0.0164 -1.5914 -0.1982
  103DOPC  C21514155   2.044   3.846   2.683  0.3310 -1.3824 -0.1547
  103DOPC  H15R14156   1.980   3.890   2.604  0.1128  0.2850  0.8887
  103DOPC  H15S14157   2.138   3.906   2.679  1.7895 -3.5580 -0.0264
  103DOPC  C21614158   1.972   3.858   2.815  0.0673 -0.3153  0.4511
  103DOPC  H16R14159   2.042   3.845   2.900  3.6133  2.5402 -1.7605
  103DOPC  H16S14160   1.893   3.783   2.837 -1.5942  1.3744  0.4682
  103DOPC  C21714161   1.904   3.993   2.833  0.1330 -0.1467 -0.1001
  103DOPC  H17R14162   1.840   3.980   2.923  2.4026 -1.4797  1.4172
  103DOPC  H17S14163   1.823   4.022   2.763 -0.5571 -1.4064  0.1423
  103DOPC  C21814164   2.012   4.097   2.855  0.0191  0.2215  0.2579
  103DOPC  H18R14165   2.081   4.075   2.939  0.1611  3.0398  0.9750
  103DOPC  H18S14166   1.964   4.193   2.884  1.1325 -0.0344  3.2419
  103DOPC  H18T14167   2.073   4.098   2.762 -0.8757  0.8162 -0.3423
  103DOPC   C3314168   2.864   3.928   1.538  0.5675 -0.2046 -0.1453
  103DOPC   H3X14169   2.828   3.831   1.580  0.1167 -0.1218 -0.3337
  103DOPC   H3Y14170   2.802   3.999   1.597  0.9750 -0.9726  1.2616
  103DOPC   C3414171   3.013   3.940   1.568  0.1729  0.0139 -0.8146
  103DOPC   H4X14172   3.042   4.045   1.546 -1.9000  0.2948 -2.5466
  103DOPC   H4Y14173   3.071   3.868   1.507  0.6551 -1.9411  1.7937
  103DOPC   C3514174   3.041   3.900   1.710 -0.8380  0.4672  0.5245
  103DOPC   H5X14175   2.993   3.800   1.720  0.3421  0.0309  2.2465
  103DOPC   H5Y14176   2.978   3.957   1.782 -0.0093 -0.3474  1.9456
  103DOPC   C3614177   3.182   3.900   1.751 -0.3018  0.4593 -0.0834
  103DOPC   H6X14178   3.234   3.825   1.688 -0.3148  0.5633 -0.2170
  103DOPC   H6Y14179   3.235   3.996   1.731  0.7361 -0.2944 -1.0670
  103DOPC   C3714180   3.203   3.864   1.900 -0.2953 -0.2403  0.2700
  103DOPC   H7X14181   3.153   3.936   1.968  0.3019 -1.0741  1.6209
  103DOPC   H7Y14182   3.159   3.764   1.920  0.0561 -0.3819  0.3390
  103DOPC   C3814183   3.357   3.860   1.929  0.8789 -0.0113 -0.0850
  103DOPC   H8X14184   3.389   3.960   1.894  1.8400 -0.2359  0.1423
  103DOPC   H8Y14185   3.399   3.772   1.876 -1.0152  0.0103 -1.7806
  103DOPC   C3914186   3.357   3.838   2.075  0.3546 -0.0665 -0.4760
  103DOPC   H9X14187   3.344   3.732   2.100 -1.4565  0.4575  1.0114
  103DOPC  C31014188   3.361   3.925   2.182 -0.4719 -0.9575  0.7839
  103DOPC  H10X14189   3.347   3.888   2.284 -0.9563  0.0907  1.1141
  103DOPC  C31114190   3.368   4.074   2.165 -0.2009  0.2596  0.6877
  103DOPC  H11X14191   3.277   4.123   2.204 -1.6538 -1.2056 -0.7043
  103DOPC  H11Y14192   3.361   4.102   2.058 -2.1865  1.7945  1.1672
  103DOPC  C31214193   3.506   4.131   2.214 -0.1649  0.0054 -0.2223
  103DOPC  H12X14194   3.580   4.115   2.133  1.0137  1.7826  0.4439
  103DOPC  H12Y14195   3.542   4.082   2.307  1.4337  1.1696 -0.1929
  103DOPC  C31314196   3.501   4.288   2.226  0.7239  0.5538  0.4105
  103DOPC  H13X14197   3.520   4.326   2.123  1.1852 -1.7052 -0.3936
  103DOPC  H13Y14198   3.405   4.326   2.267 -1.2407 -1.5989 -1.8986
  103DOPC  C31414199   3.624   4.338   2.308 -0.1512 -0.0486  0.1330
  103DOPC  H14X14200   3.630   4.304   2.414 -2.1957  0.2460  0.3779
  103DOPC  H14Y14201   3.714   4.295   2.258 -0.3125 -0.4327  0.1654
  103DOPC  C31514202   3.630   4.492   2.298 -0.4698 -0.2284 -0.1914
  103DOPC  H15X14203   3.528   4.536   2.290  0.1706  1.2985 -0.2532
  103DOPC  H15Y14204   3.675   4.528   2.203 -0.1048  1.7298  0.6865
  103DOPC  C31614205   3.709   4.559   2.410  0.0130 -0.4618 -0.2108
  103DOPC  H16X14206   3.697   4.668   2.393  0.2918 -0.0095  2.1055
  103DOPC  H16Y14207   3.666   4.528   2.508  0.2743 -0.9013 -0.2312
  103DOPC  C31714208   3.862   4.519   2.413  0.3926 -0.2718  0.0841
  103DOPC  H17X14209   3.865   4.408   2.417 -0.7317 -0.2916  0.9543
  103DOPC  H17Y14210   3.910   4.551   2.318 -0.3999 -0.6678 -0.4597
  103DOPC  C31814211   3.937   4.594   2.533 -0.6593  0.7178 -0.0575
  103DOPC  H18X14212   4.038   4.622   2.496 -0.4105  0.2576  0.2723
  103DOPC  H18Y14213   3.873   4.684   2.546  0.1645  1.5121 -1.2955
  103DOPC  H18Z14214   3.943   4.538   2.629  0.4756 -1.6526 -1.4168
  104DOPC     N14215   4.750   4.981   1.248 -0.4943 -0.0528 -0.7990
  104DOPC   C1214216   4.858   4.983   1.347 -0.0767 -0.0432  0.1717
  104DOPC  H12A14217   4.894   5.081   1.374 -0.6283 -0.0833  1.1074
  104DOPC  H12B14218   4.948   4.939   1.306 -0.0385 -0.8010  1.0331
  104DOPC   C1314219   4.692   4.839   1.243  0.5868  0.1125 -0.2784
  104DOPC  H13A14220   4.632   4.820   1.331 -0.4296 -1.3650 -1.2435
  104DOPC  H13B14221   4.636   4.828   1.152 -3.9105 -0.2021  2.2386
  104DOPC  H13C14222   4.775   4.770   1.250  1.8528  1.6039 -0.1072
  104DOPC   C1414223   4.790   5.027   1.112 -0.4514 -0.5795  0.6949
  104DOPC  H14A14224   4.864   4.963   1.068 -1.4211 -1.9194  0.9384
  104DOPC  H14B14225   4.709   5.016   1.041  1.1153 -2.3652 -0.9307
  104DOPC  H14C14226   4.807   5.133   1.108  1.8005 -0.9113  0.4318
  104DOPC   C1514227   4.631   5.070   1.290 -0.0583  0.3985 -0.1792
  104DOPC  H15A14228   4.552   5.057   1.219 -1.6453 -3.7591  2.0008
  104DOPC  H15B14229   4.642   5.175   1.312 -0.4352  0.7218 -1.4472
  104DOPC  H15C14230   4.589   5.026   1.380  1.2269 -0.2284  0.1390
  104DOPC   C1114231   4.837   4.919   1.487 -0.0839 -0.1856 -0.3476
  104DOPC  H11A14232   4.819   4.810   1.483  1.8825 -0.5752  0.4462
  104DOPC  H11B14233   4.933   4.925   1.544 -1.3769 -1.4876  2.1307
  104DOPC     P14234   4.759   5.121   1.639  0.0502  0.1547  0.2973
  104DOPC   O1314235   4.632   5.167   1.697  1.0118  0.4223  0.2437
  104DOPC   O1414236   4.827   5.213   1.553  0.4661 -0.6238 -0.1634
  104DOPC   O1214237   4.737   4.987   1.565  0.7459 -0.1088 -0.2618
  104DOPC   O1114238   4.856   5.066   1.752 -0.2938 -0.2981 -0.5174
  104DOPC    C114239   4.827   4.976   1.857 -0.1219  0.6005  0.2940
  104DOPC    HA14240   4.904   4.896   1.852  0.2195  0.9424 -0.0467
  104DOPC    HB14241   4.728   4.929   1.841 -0.1962  0.0748  2.1193
  104DOPC    C214242   4.810   5.045   1.989  0.4434 -0.4694 -0.6055
  104DOPC    HS14243   4.861   5.143   1.980  0.1747 -0.4567 -2.1507
  104DOPC   O2114244   4.883   4.968   2.089 -0.5936  0.2506 -0.1601
  104DOPC   C2114245   5.003   5.010   2.144 -0.1910  0.2910 -0.0484
  104DOPC   O2214246   5.034   5.129   2.133  0.3528  0.2441  0.0908
  104DOPC   C2214247   5.078   4.902   2.218 -1.1553 -0.1238  0.7925
  104DOPC   H2R14248   5.179   4.899   2.172 -1.2695  1.3332  0.4166
  104DOPC   H2S14249   5.042   4.801   2.188  2.5972 -0.9420 -1.6315
  104DOPC    C314250   4.665   5.047   2.043  0.2555  0.0622  0.2085
  104DOPC    HX14251   4.632   4.941   2.051 -1.7703  0.5555 -0.9287
  104DOPC    HY14252   4.604   5.096   1.964 -1.7888  0.8150  2.1209
  104DOPC   O3114253   4.658   5.111   2.170 -0.2310  1.2091  0.1205
  104DOPC   C3114254   4.685   5.242   2.177  0.1040 -0.5605  0.4346
  104DOPC   O3214255   4.701   5.322   2.084 -0.1332  0.0485 -0.0475
  104DOPC   C3214256   4.686   5.292   2.319  0.2851  0.4043  0.1399
  104DOPC   H2X14257   4.616   5.378   2.329 -0.9911 -0.7747  1.6366
  104DOPC   H2Y14258   4.642   5.217   2.387  2.3068 -1.8231 -0.8684
  104DOPC   C2314259   5.097   4.918   2.372  0.5269  0.6074 -0.0698
  104DOPC   H3R14260   5.001   4.884   2.417  1.0277  1.2223  1.5448
  104DOPC   H3S14261   5.093   5.026   2.396 -2.7118  0.6803 -0.4418
  104DOPC   C2414262   5.224   4.855   2.414  0.1512 -0.0347 -0.7386
  104DOPC   H4R14263   5.313   4.898   2.362  0.7501  0.5242  0.7042
  104DOPC   H4S14264   5.228   4.747   2.387 -1.1561 -0.8504  2.0018
  104DOPC   C2514265   5.239   4.857   2.565 -0.7889 -0.3952 -0.3041
  104DOPC   H5R14266   5.332   4.805   2.596 -1.2900 -1.1706 -0.0617
  104DOPC   H5S14267   5.158   4.792   2.603 -1.1637  1.4149  2.2271
  104DOPC   C2614268   5.215   4.992   2.630 -0.4314  0.3546 -0.1605
  104DOPC   H6R14269   5.105   5.006   2.629 -0.8468 -2.4928  0.0020
  104DOPC   H6S14270   5.266   5.073   2.572 -0.3556  0.6298  0.2784
  104DOPC   C2714271   5.257   4.994   2.777  0.5265 -0.2852 -0.6695
  104DOPC   H7R14272   5.282   5.097   2.812  1.0893 -0.4888 -0.4628
  104DOPC   H7S14273   5.354   4.941   2.777  0.0306 -1.2422  0.5949
  104DOPC   C2814274   5.166   4.918   2.879 -0.2400 -0.6023 -0.0444
  104DOPC   H8R14275   5.233   4.910   2.967 -0.2474 -2.4888 -0.1574
  104DOPC   H8S14276   5.149   4.815   2.840 -1.8311 -0.8492  1.2166
  104DOPC   C2914277   5.040   4.984   2.920  0.0441  0.7947  0.3948
  104DOPC   H9R14278   4.993   5.045   2.842 -1.2850  0.4116  0.8775
  104DOPC  C21014279   4.986   4.985   3.044  0.0250  0.4369  0.2985
  104DOPC  H10R14280   4.891   5.038   3.061 -0.5966 -1.0167  1.6416
  104DOPC  C21114281   5.033   4.917   3.165 -0.3375 -0.4021  0.7842
  104DOPC  H11R14282   5.135   4.882   3.138  1.3103  3.0032  2.0734
  104DOPC  H11S14283   4.962   4.838   3.197 -0.0399 -1.1268 -0.2922
  104DOPC  C21214284   5.066   5.017   3.279  0.0908  0.5530 -0.3832
  104DOPC  H12R14285   4.968   5.049   3.319 -1.1273 -0.2477 -2.5384
  104DOPC  H12S14286   5.112   5.106   3.230  2.4961 -1.3299 -1.8102
  104DOPC  C21314287   5.147   4.950   3.393  0.2847 -0.6086  0.1137
  104DOPC  H13R14288   5.236   4.898   3.350  0.4893  0.8073 -1.2798
  104DOPC  H13S14289   5.078   4.882   3.447  1.4154 -1.5852  0.3860
  104DOPC  C21414290   5.212   5.049   3.495 -0.3751 -0.7723 -0.2222
  104DOPC  H14R14291   5.137   5.127   3.522  0.4880 -0.8555  2.7399
  104DOPC  H14S14292   5.290   5.111   3.445  0.0891 -1.5604 -0.4818
  104DOPC  C21514293   5.271   4.986   3.616 -0.4774 -0.6037  0.9426
  104DOPC  H15R14294   5.337   4.909   3.570 -0.4254  0.3405 -0.6288
  104DOPC  H15S14295   5.209   4.920   3.681 -1.1554 -1.0076 -0.0866
  104DOPC  C21614296   5.356   5.087   3.695 -0.1556  0.1286 -0.6563
  104DOPC  H16R14297   5.292   5.172   3.726  0.4428  0.0891  0.7865
  104DOPC  H16S14298   5.440   5.121   3.631  1.3202  1.0286  1.6019
  104DOPC  C21714299   5.431   5.036   3.820  0.3913  0.0246  0.4571
  104DOPC  H17R14300   5.479   4.941   3.786 -0.6861 -0.8992  1.4315
  104DOPC  H17S14301   5.362   4.997   3.898  0.5780  1.9530  1.6291
  104DOPC  C21814302   5.532   5.129   3.886 -0.0167 -0.0167  0.2439
  104DOPC  H18R14303   5.574   5.068   3.969 -0.3096 -3.1669 -1.7596
  104DOPC  H18S14304   5.484   5.220   3.926 -0.7575  0.6403 -2.0082
  104DOPC  H18T14305   5.614   5.154   3.815  0.7321  1.9356  1.6894
  104DOPC   C3314306   4.827   5.306   2.370 -0.3404 -0.8496  0.1122
  104DOPC   H3X14307   4.892   5.363   2.300 -3.0323  1.2091 -0.9080
  104DOPC   H3Y14308   4.867   5.204   2.385  1.4475 -0.1363  0.5036
  104DOPC   C3414309   4.829   5.388   2.503  0.1861 -0.0928  0.8993
  104DOPC   H4X14310   4.744   5.365   2.571  0.0387  1.1904  1.1715
  104DOPC   H4Y14311   4.828   5.494   2.469 -1.4100 -1.1947 -2.9917
  104DOPC   C3514312   4.957   5.367   2.581 -0.3271  0.0122  0.4695
  104DOPC   H5X14313   5.041   5.388   2.512  0.8953 -3.8082  0.5340
  104DOPC   H5Y14314   4.967   5.256   2.590  1.9346  0.2500  1.3987
  104DOPC   C3614315   4.947   5.443   2.710  0.3330  0.1271  0.5365
  104DOPC   H6X14316   4.905   5.543   2.688 -0.5851 -0.3354  0.1388
  104DOPC   H6Y14317   4.881   5.396   2.787 -1.1247  1.9407  0.4467
  104DOPC   C3714318   5.088   5.457   2.766 -0.1865 -0.0032  0.4457
  104DOPC   H7X14319   5.126   5.353   2.755  1.8570  0.7004  0.4318
  104DOPC   H7Y14320   5.154   5.524   2.708 -0.9366  1.2265  0.9677
  104DOPC   C3814321   5.082   5.494   2.914  0.7326  0.8744  0.3912
  104DOPC   H8X14322   5.000   5.568   2.925  0.1375  0.2283  0.3848
  104DOPC   H8Y14323   5.182   5.541   2.929  0.8035  1.8390 -2.5659
  104DOPC   C3914324   5.078   5.373   3.004  0.2378  1.0066 -0.6237
  104DOPC   H9X14325   5.145   5.290   2.980 -0.0889  0.5277  0.0827
  104DOPC  C31014326   4.983   5.353   3.094  0.8366  0.1620 -0.2015
  104DOPC  H10X14327   4.977   5.256   3.146 -0.8976  0.7070  0.6734
  104DOPC  C31114328   4.872   5.444   3.126  0.0851  0.3839 -0.2960
  104DOPC  H11X14329   4.886   5.552   3.106 -2.1856  0.9406  0.8493
  104DOPC  H11Y14330   4.860   5.429   3.235  0.4088 -0.7266 -0.4029
  104DOPC  C31214331   4.742   5.399   3.078  0.1677  0.1154 -0.0535
  104DOPC  H12X14332   4.727   5.293   3.108 -2.2861  0.6180  0.7207
  104DOPC  H12Y14333   4.744   5.412   2.967  0.9567 -0.3624 -0.0988
  104DOPC  C31314334   4.622   5.478   3.135  0.0364 -0.6682  0.0992
  104DOPC  H13X14335   4.526   5.430   3.108 -0.1875  0.3746 -1.0343
  104DOPC  H13Y14336   4.641   5.481   3.245  3.2337  1.0232 -0.3882
  104DOPC  C31414337   4.610   5.618   3.067 -0.0503  0.1482  0.2823
  104DOPC  H14X14338   4.712   5.661   3.081 -0.0449 -0.0276  0.8352
  104DOPC  H14Y14339   4.603   5.615   2.956 -0.7393  0.7393  0.3088
  104DOPC  C31514340   4.498   5.702   3.130  0.2315  0.2431 -0.2476
  104DOPC  H15X14341   4.527   5.752   3.225 -1.4091 -1.6112  1.3283
  104DOPC  H15Y14342   4.406   5.641   3.141  0.4493 -0.3432 -1.5404
  104DOPC  C31614343   4.455   5.811   3.027  0.2840 -0.5400 -0.0381
  104DOPC  H16X14344   4.541   5.877   3.003 -1.1115  1.9259  1.3364
  104DOPC  H16Y14345   4.423   5.774   2.927  0.0068 -0.9860  0.2132
  104DOPC  C31714346   4.326   5.892   3.052  0.0403 -0.1764  0.0062
  104DOPC  H17X14347   4.345   5.947   3.146  2.2245 -1.2436  0.2342
  104DOPC  H17Y14348   4.322   5.961   2.964 -0.5825 -0.8898 -0.5427
  104DOPC  C31814349   4.199   5.812   3.061 -0.9458  0.3635 -0.4428
  104DOPC  H18X14350   4.105   5.870   3.050 -1.2504 -0.3704 -1.9606
  104DOPC  H18Y14351   4.198   5.732   2.983  2.3342 -1.5787  1.2801
  104DOPC  H18Z14352   4.203   5.759   3.158  0.3903 -1.0215 -1.2059
  105DOPC     N14353   4.405   0.736   1.334 -0.6440 -0.6420  0.1687
  105DOPC   C1214354   4.353   0.869   1.278  0.0293  0.2857 -0.0094
  105DOPC  H12A14355   4.337   0.849   1.173 -0.1732 -0.8423  0.2331
  105DOPC  H12B14356   4.427   0.947   1.292 -0.8446  1.2365 -0.5595
  105DOPC   C1314357   4.539   0.711   1.268  0.2910 -0.0538 -0.3662
  105DOPC  H13A14358   4.580   0.620   1.310 -0.2827  1.1296  3.0236
  105DOPC  H13B14359   4.529   0.706   1.160  0.7416  1.4886 -0.5006
  105DOPC  H13C14360   4.605   0.791   1.296 -0.6830  0.9143 -0.7477
  105DOPC   C1414361   4.308   0.625   1.323  0.1163  0.1830 -0.3344
  105DOPC  H14A14362   4.275   0.609   1.222 -2.1255 -1.0421  0.5133
  105DOPC  H14B14363   4.348   0.529   1.352 -2.1519 -0.5407  0.6468
  105DOPC  H14C14364   4.226   0.649   1.389  0.5551  0.4295  0.1332
  105DOPC   C1514365   4.438   0.750   1.480 -0.1042  0.3975  0.0886
  105DOPC  H15A14366   4.478   0.659   1.523  0.2588  1.4695  2.1957
  105DOPC  H15B14367   4.358   0.781   1.546  0.5170 -1.4330  1.8288
  105DOPC  H15C14368   4.519   0.820   1.496  2.2261 -1.8959 -1.0501
  105DOPC   C1114369   4.220   0.925   1.341 -0.4701  0.3397 -0.7362
  105DOPC  H11A14370   4.189   1.014   1.281  1.2368  1.4012 -0.1311
  105DOPC  H11B14371   4.146   0.844   1.324 -1.2432  1.4171 -2.8864
  105DOPC     P14372   4.314   1.093   1.518  0.1003 -0.0782  0.1781
  105DOPC   O1314373   4.210   1.199   1.551  0.3718  0.0565 -0.0400
  105DOPC   O1414374   4.415   1.138   1.414 -0.0698 -0.7511 -0.7143
  105DOPC   O1214375   4.246   0.958   1.474 -0.0536 -0.3753  0.1575
  105DOPC   O1114376   4.389   1.063   1.650  0.3461 -0.2880  0.3122
  105DOPC    C114377   4.338   1.104   1.779  0.5689  0.2569  0.2313
  105DOPC    HA14378   4.230   1.081   1.791  1.0499 -1.7028  1.3651
  105DOPC    HB14379   4.343   1.215   1.787  3.1619  0.1349  1.2606
  105DOPC    C214380   4.409   1.034   1.891 -0.0602 -0.4977  0.1245
  105DOPC    HS14381   4.505   1.090   1.880 -2.0366  2.9047 -1.2762
  105DOPC   O2114382   4.416   0.897   1.862 -0.2069 -0.5501 -0.2807
  105DOPC   C2114383   4.517   0.828   1.904 -0.2006  0.3921  0.6498
  105DOPC   O2214384   4.610   0.867   1.969 -0.4173 -0.0015  0.4972
  105DOPC   C2214385   4.499   0.682   1.862  0.0850  0.5646 -0.0459
  105DOPC   H2R14386   4.539   0.667   1.760 -1.3811  0.0478 -0.5691
  105DOPC   H2S14387   4.390   0.660   1.860 -0.2981  1.8597  2.2660
  105DOPC    C314388   4.355   1.067   2.043 -0.0816 -0.4574  1.0207
  105DOPC    HX14389   4.260   1.009   2.045 -0.7628  0.5230 -0.6240
  105DOPC    HY14390   4.328   1.174   2.055 -3.6696 -1.3340  1.9689
  105DOPC   O3114391   4.443   1.020   2.146  0.7343 -0.5132  0.3707
  105DOPC   C3114392   4.547   1.084   2.173  0.2686  0.0648 -0.5575
  105DOPC   O3214393   4.584   1.182   2.108 -1.0912 -0.4225 -0.3972
  105DOPC   C3214394   4.620   1.013   2.296  0.2218  0.2541  0.0851
  105DOPC   H2X14395   4.578   1.055   2.390  0.1595  0.6553 -0.1193
  105DOPC   H2Y14396   4.611   0.902   2.291  2.8165 -0.0320  0.4412
  105DOPC   C2314397   4.560   0.576   1.962 -0.2328 -0.0230  0.3127
  105DOPC   H3R14398   4.663   0.608   1.990  0.2392 -1.4631  0.2721
  105DOPC   H3S14399   4.563   0.478   1.911  0.9432  0.8925 -1.5297
  105DOPC   C2414400   4.471   0.562   2.089  0.0973  0.1742 -0.2305
  105DOPC   H4R14401   4.368   0.529   2.067  1.0424 -2.2030 -1.4977
  105DOPC   H4S14402   4.473   0.663   2.135 -0.2303  0.0131  0.1352
  105DOPC   C2514403   4.541   0.467   2.188 -0.0222  0.7483 -0.2238
  105DOPC   H5R14404   4.473   0.441   2.272 -0.5479 -1.5329 -1.2993
  105DOPC   H5S14405   4.626   0.527   2.228 -1.1233  0.1375  3.3885
  105DOPC   C2614406   4.611   0.339   2.128  0.2210  0.0982  0.2092
  105DOPC   H6R14407   4.702   0.370   2.073 -0.3479  0.3847 -0.6027
  105DOPC   H6S14408   4.536   0.294   2.059  1.9382  1.5260 -2.7755
  105DOPC   C2714409   4.658   0.238   2.233  0.5581 -0.6999  0.3561
  105DOPC   H7R14410   4.571   0.203   2.291  0.8229 -0.7471  0.7262
  105DOPC   H7S14411   4.728   0.302   2.291 -0.7036  0.8557  0.2285
  105DOPC   C2814412   4.717   0.117   2.160 -0.2704 -0.0183 -0.1540
  105DOPC   H8R14413   4.726   0.131   2.050 -0.5563 -0.4456 -0.2319
  105DOPC   H8S14414   4.642   0.036   2.172 -1.8786  1.3237 -0.7523
  105DOPC   C2914415   4.847   0.085   2.230 -0.0454 -0.0224 -0.7729
  105DOPC   H9R14416   4.936   0.131   2.185 -0.4420  0.4813 -1.0516
  105DOPC  C21014417   4.874   0.016   2.344  0.4193 -0.7576 -0.4478
  105DOPC  H10R14418   4.976   0.008   2.383  0.3882 -0.4708 -0.2996
  105DOPC  C21114419   4.775   8.490   2.438  0.0325 -0.6341  0.1516
  105DOPC  H11R14420   4.819   8.407   2.496  0.5142 -0.0184  0.6885
  105DOPC  H11S14421   4.685   8.451   2.387 -0.0732 -3.1118  2.0847
  105DOPC  C21214422   4.730   0.060   2.535  0.2356  0.2416 -0.9182
  105DOPC  H12R14423   4.639   0.028   2.591 -0.8088  3.0124 -0.8507
  105DOPC  H12S14424   4.683   0.146   2.482  0.5021  2.0209  1.5534
  105DOPC  C21314425   4.824   0.119   2.645 -0.1297  0.5986  0.3283
  105DOPC  H13R14426   4.908   0.164   2.589 -0.8064  1.7578  0.2261
  105DOPC  H13S14427   4.866   0.030   2.697 -1.1047  0.3408  0.6967
  105DOPC  C21414428   4.759   0.203   2.747  0.1318  0.4964  0.2739
  105DOPC  H14R14429   4.840   0.262   2.795  0.5906  0.9423 -1.0108
  105DOPC  H14S14430   4.702   0.136   2.815  0.2820 -0.8014 -0.8587
  105DOPC  C21514431   4.647   0.303   2.705 -0.1510  0.2329 -0.2267
  105DOPC  H15R14432   4.606   0.343   2.800  1.6248  0.5780  0.4391
  105DOPC  H15S14433   4.563   0.250   2.656  0.7889 -2.5075  0.9100
  105DOPC  C21614434   4.695   0.414   2.612  0.7568 -0.0110  0.6145
  105DOPC  H16R14435   4.620   0.496   2.601  0.2016 -0.6564 -0.6479
  105DOPC  H16S14436   4.707   0.350   2.522  1.5871 -0.0196  0.7288
  105DOPC  C21714437   4.829   0.482   2.631 -0.9158  0.0822 -0.1410
  105DOPC  H17R14438   4.915   0.412   2.638 -0.3825  0.8608  1.4976
  105DOPC  H17S14439   4.830   0.554   2.715 -1.5275 -0.1315  0.0547
  105DOPC  C21814440   4.849   0.559   2.496  0.1448 -0.2243 -0.1551
  105DOPC  H18R14441   4.857   0.490   2.409 -2.7449 -1.3956  0.3866
  105DOPC  H18S14442   4.937   0.626   2.506 -1.2181  1.5529  0.4398
  105DOPC  H18T14443   4.763   0.628   2.484  0.7436  0.2118 -2.3465
  105DOPC   C3314444   4.766   1.045   2.305  0.1150 -0.0777 -0.6433
  105DOPC   H3X14445   4.780   1.152   2.277 -0.8221  0.6399  1.4195
  105DOPC   H3Y14446   4.829   0.982   2.239 -0.2341  0.1034 -1.1626
  105DOPC   C3414447   4.815   1.025   2.456  0.5926  0.3689  0.5447
  105DOPC   H4X14448   4.820   0.915   2.473 -3.7161 -0.0623  0.3423
  105DOPC   H4Y14449   4.733   1.061   2.523 -0.0325  0.9515 -0.5113
  105DOPC   C3514450   4.947   1.103   2.489  0.6945 -0.3107  0.9282
  105DOPC   H5X14451   4.907   1.205   2.505 -2.0547 -1.2719  0.7212
  105DOPC   H5Y14452   5.021   1.112   2.406 -0.3947  2.7072  0.1585
  105DOPC   C3614453   5.011   1.052   2.622  0.0857 -0.5739 -0.0032
  105DOPC   H6X14454   4.931   1.065   2.698  1.1120  0.4811  0.9358
  105DOPC   H6Y14455   5.052   0.949   2.619 -0.6715 -0.8675 -0.7726
  105DOPC   C3714456   5.116   1.157   2.656  0.3124 -0.0721  0.2382
  105DOPC   H7X14457   5.183   1.156   2.567  0.4468  0.3902  0.3313
  105DOPC   H7Y14458   5.056   1.250   2.647  0.2408 -0.2434 -1.3480
  105DOPC   C3814459   5.199   1.156   2.789  0.7108 -0.3070  0.8314
  105DOPC   H8X14460   5.127   1.187   2.868 -2.2913 -0.3954 -1.7101
  105DOPC   H8Y14461   5.276   1.236   2.799 -1.0189  1.3269  1.6792
  105DOPC   C3914462   5.258   1.026   2.828 -0.3258  0.0573 -0.0528
  105DOPC   H9X14463   5.288   0.956   2.749 -0.9972 -0.8095  0.4397
  105DOPC  C31014464   5.279   0.982   2.957  0.8092 -0.0868  0.9723
  105DOPC  H10X14465   5.323   0.881   2.961 -0.4929 -0.9683 -2.8409
  105DOPC  C31114466   5.252   1.050   3.089  0.8399 -0.1114  0.0150
  105DOPC  H11X14467   5.250   0.974   3.169  0.4097  0.9350  1.0338
  105DOPC  H11Y14468   5.146   1.085   3.083  0.2095 -1.9034  0.2816
  105DOPC  C31214469   5.344   1.164   3.138  0.2027 -0.2229 -0.3896
  105DOPC  H12X14470   5.377   1.225   3.051  0.2368 -0.1930 -0.3556
  105DOPC  H12Y14471   5.439   1.125   3.180 -0.0613 -1.2642 -0.7269
  105DOPC  C31314472   5.277   1.265   3.233  0.8655 -0.0870 -0.4646
  105DOPC  H13X14473   5.345   1.352   3.249  2.1648 -1.0562 -0.5383
  105DOPC  H13Y14474   5.189   1.301   3.176  0.0120  2.1831  2.0846
  105DOPC  C31414475   5.237   1.208   3.372  0.5247 -0.7390  0.6636
  105DOPC  H14X14476   5.138   1.161   3.356  0.9306 -2.2551  2.3738
  105DOPC  H14Y14477   5.303   1.120   3.390  1.0778 -0.4714  0.0224
  105DOPC  C31514478   5.240   1.304   3.488  0.2279  0.3839 -0.3670
  105DOPC  H15X14479   5.190   1.260   3.577 -1.9392 -0.1149 -1.7551
  105DOPC  H15Y14480   5.182   1.393   3.456  0.4956  1.5599  2.1891
  105DOPC  C31614481   5.383   1.345   3.528 -0.2184  0.5143 -0.6159
  105DOPC  H16X14482   5.436   1.351   3.431  2.1774 -1.3244  0.4968
  105DOPC  H16Y14483   5.371   1.452   3.556 -0.2993  0.1089  1.0190
  105DOPC  C31714484   5.442   1.264   3.638 -0.8332 -0.1839 -0.1566
  105DOPC  H17X14485   5.370   1.271   3.722 -0.1343  0.4336  0.4064
  105DOPC  H17Y14486   5.444   1.157   3.608  0.5535  0.2066 -1.6315
  105DOPC  C31814487   5.585   1.291   3.693  0.1887  0.1585  0.3419
  105DOPC  H18X14488   5.661   1.259   3.619  0.7121  1.1302  0.4411
  105DOPC  H18Y14489   5.606   1.394   3.730  2.7785  0.4972 -1.7813
  105DOPC  H18Z14490   5.595   1.232   3.787 -2.2964 -0.3594  0.3299
  106DOPC     N14491   6.690   4.470   1.793 -0.3304 -0.2107 -0.4127
  106DOPC   C1214492   6.671   4.344   1.710  0.1433 -0.3488  0.2127
  106DOPC  H12A14493   6.773   4.323   1.681  0.0251  0.6609 -1.0359
  106DOPC  H12B14494   6.605   4.369   1.627  0.0767 -0.5273  0.2119
  106DOPC   C1314495   6.722   4.580   1.696  0.2010  0.6087 -0.6359
  106DOPC  H13A14496   6.744   4.670   1.752 -0.2993  0.9723 -1.0142
  106DOPC  H13B14497   6.809   4.542   1.644  2.0392  2.0649  1.1808
  106DOPC  H13C14498   6.635   4.611   1.640  0.8430  2.9639 -0.4268
  106DOPC   C1414499   6.793   4.448   1.896  0.1341 -0.1166  0.2217
  106DOPC  H14A14500   6.799   4.531   1.966 -0.6575  0.2660 -0.1414
  106DOPC  H14B14501   6.770   4.355   1.946 -1.2333  0.2811  0.3894
  106DOPC  H14C14502   6.893   4.443   1.856 -0.6313  0.4677 -1.9317
  106DOPC   C1514503   6.566   4.516   1.863  0.5709  0.7382  0.8632
  106DOPC  H15A14504   6.501   4.548   1.783  1.0491 -1.7751 -0.6386
  106DOPC  H15B14505   6.593   4.602   1.922 -0.3909  1.4045  0.3624
  106DOPC  H15C14506   6.513   4.440   1.918  0.4066 -0.5487 -0.9907
  106DOPC   C1114507   6.630   4.222   1.799 -0.4499  0.2669  0.3714
  106DOPC  H11A14508   6.638   4.126   1.743 -0.8976  0.9540 -0.8915
  106DOPC  H11B14509   6.694   4.196   1.886  0.1668 -4.2370 -1.1630
  106DOPC     P14510   6.374   4.196   1.733 -0.1298 -0.4205  0.0156
  106DOPC   O1314511   6.409   4.213   1.592 -0.6610  0.3396  0.7299
  106DOPC   O1414512   6.244   4.268   1.764 -0.6771 -0.0239  0.2294
  106DOPC   O1214513   6.494   4.231   1.834  0.2809  0.1169 -0.2171
  106DOPC   O1114514   6.364   4.045   1.750  0.2362  0.8018 -0.1312
  106DOPC    C114515   6.423   3.965   1.854  0.4419 -0.3745 -0.0010
  106DOPC    HA14516   6.502   4.014   1.915  0.0488  0.1607  0.0809
  106DOPC    HB14517   6.463   3.872   1.809 -1.2373 -0.6022 -1.1195
  106DOPC    C214518   6.319   3.923   1.959 -0.8119 -0.0015  0.0425
  106DOPC    HS14519   6.228   3.889   1.906  0.0598 -2.0137 -0.2409
  106DOPC   O2114520   6.294   4.036   2.040 -0.5993 -0.0569 -0.3556
  106DOPC   C2114521   6.177   4.048   2.096  0.0008  0.1414  0.1851
  106DOPC   O2214522   6.083   3.969   2.081 -0.0881  0.6655 -0.3583
  106DOPC   C2214523   6.169   4.178   2.177  0.2723  0.5991  0.4189
  106DOPC   H2R14524   6.211   4.253   2.107  1.6749 -2.4117 -2.2695
  106DOPC   H2S14525   6.238   4.166   2.263 -1.7898 -0.0951  2.0563
  106DOPC    C314526   6.372   3.795   2.042 -0.3173 -0.5767 -0.2743
  106DOPC    HX14527   6.476   3.817   2.074 -0.0906 -0.6137 -0.9642
  106DOPC    HY14528   6.387   3.704   1.981  0.6146 -1.6458  1.4666
  106DOPC   O3114529   6.297   3.773   2.158  0.0241  1.2365 -0.2527
  106DOPC   C3114530   6.186   3.699   2.150  0.1566  0.3494 -0.1346
  106DOPC   O3214531   6.149   3.651   2.045  0.1782  0.6197  0.1134
  106DOPC   C3214532   6.115   3.688   2.288 -0.0728  0.5146  0.2079
  106DOPC   H2X14533   6.014   3.733   2.281  0.0046  0.8359  1.1034
  106DOPC   H2Y14534   6.121   3.579   2.311  0.2184  0.3344 -0.6863
  106DOPC   C2314535   6.029   4.213   2.222 -0.7194 -0.9906  0.3548
  106DOPC   H3R14536   5.950   4.196   2.145 -1.2906 -2.2997  1.1905
  106DOPC   H3S14537   6.016   4.323   2.234 -0.5511 -0.9082 -0.1686
  106DOPC   C2414538   5.993   4.129   2.347  0.0876 -0.8665 -0.2989
  106DOPC   H4R14539   6.061   4.136   2.434 -4.0913 -0.0860  3.2503
  106DOPC   H4S14540   5.987   4.023   2.314 -0.6292 -1.3838  1.4080
  106DOPC   C2514541   5.859   4.178   2.410  0.5948 -0.1621  0.4747
  106DOPC   H5R14542   5.773   4.173   2.340 -0.0819  1.9219  1.0814
  106DOPC   H5S14543   5.866   4.284   2.443  2.4073 -0.9719  2.9683
  106DOPC   C2614544   5.820   4.101   2.536 -0.2956  0.5558  0.4978
  106DOPC   H6R14545   5.909   4.088   2.602  0.6255 -3.7134 -1.2766
  106DOPC   H6S14546   5.794   4.000   2.500  1.4206  0.0292  0.6349
  106DOPC   C2714547   5.697   4.154   2.608 -0.5082 -0.8337  0.3596
  106DOPC   H7R14548   5.611   4.131   2.541  0.2463 -0.0980 -0.8777
  106DOPC   H7S14549   5.717   4.263   2.607  2.8679 -1.3615  0.8531
  106DOPC   C2814550   5.679   4.114   2.755 -0.4288 -0.0060 -0.7470
  106DOPC   H8R14551   5.742   4.159   2.833 -0.2599 -1.4768  0.0101
  106DOPC   H8S14552   5.684   4.003   2.754 -0.0965 -0.0047 -0.0404
  106DOPC   C2914553   5.531   4.135   2.786 -0.5847 -0.2281 -0.6021
  106DOPC   H9R14554   5.461   4.151   2.703 -0.5737 -1.7600 -0.9456
  106DOPC  C21014555   5.473   4.145   2.909 -0.6905 -0.2908 -0.2002
  106DOPC  H10R14556   5.363   4.140   2.915 -0.9706  1.4648 -2.6006
  106DOPC  C21114557   5.550   4.121   3.036 -0.7275  0.4966 -0.2836
  106DOPC  H11R14558   5.631   4.048   3.016 -1.7469 -0.6000 -0.4516
  106DOPC  H11S14559   5.478   4.076   3.107  0.9630  1.0934  1.9254
  106DOPC  C21214560   5.615   4.246   3.096 -1.2668  0.5083  0.9921
  106DOPC  H12R14561   5.543   4.316   3.143  0.2528  1.7199  1.6251
  106DOPC  H12S14562   5.674   4.299   3.018 -0.2210 -3.0967 -0.8813
  106DOPC  C21314563   5.722   4.210   3.205  0.0955  0.3363 -0.1715
  106DOPC  H13R14564   5.790   4.131   3.168  0.8638  1.0274 -0.2820
  106DOPC  H13S14565   5.666   4.163   3.289 -1.7972  2.3699 -0.1918
  106DOPC  C21414566   5.794   4.333   3.267 -0.8957 -0.5549  0.3001
  106DOPC  H14R14567   5.717   4.394   3.319 -0.7473  0.4941 -0.6742
  106DOPC  H14S14568   5.842   4.397   3.190 -0.7466 -1.6052 -0.5037
  106DOPC  C21514569   5.895   4.278   3.365  0.5529  0.3107  0.0660
  106DOPC  H15R14570   5.962   4.213   3.306 -0.1146 -1.3961  1.1020
  106DOPC  H15S14571   5.840   4.204   3.428 -3.5554  2.5646 -0.4755
  106DOPC  C21614572   5.964   4.376   3.455  0.1586 -0.7336  0.0832
  106DOPC  H16R14573   5.893   4.411   3.534  1.1832 -3.8767  2.5842
  106DOPC  H16S14574   5.986   4.464   3.390 -0.0198  0.4070  1.5063
  106DOPC  C21714575   6.105   4.328   3.502 -0.6018 -0.4575  0.1151
  106DOPC  H17R14576   6.156   4.410   3.556  0.6678 -1.2080  0.0838
  106DOPC  H17S14577   6.150   4.299   3.405 -1.1665 -1.6715  0.1987
  106DOPC  C21814578   6.116   4.210   3.601  0.2995  0.2579  0.1803
  106DOPC  H18R14579   6.219   4.184   3.633 -0.4001 -1.7266  1.0195
  106DOPC  H18S14580   6.079   4.120   3.547  1.1783 -1.9853  3.0497
  106DOPC  H18T14581   6.049   4.227   3.688 -0.1271 -1.5127  0.2458
  106DOPC   C3314582   6.180   3.764   2.404 -0.2094  0.4200 -0.4853
  106DOPC   H3X14583   6.200   3.872   2.384  1.6047  0.0461 -0.7865
  106DOPC   H3Y14584   6.277   3.713   2.420  0.6836  1.6721 -1.6558
  106DOPC   C3414585   6.097   3.762   2.531 -0.1397 -0.0571  0.5021
  106DOPC   H4X14586   6.075   3.655   2.549  2.1889 -0.6583  0.1465
  106DOPC   H4Y14587   6.006   3.826   2.526  0.2956  0.5344 -0.1031
  106DOPC   C3514588   6.172   3.818   2.652  0.2620 -0.4305 -0.0904
  106DOPC   H5X14589   6.260   3.752   2.665  1.7017  0.6762 -3.2111
  106DOPC   H5Y14590   6.099   3.806   2.735 -1.0708 -2.4899 -1.4653
  106DOPC   C3614591   6.230   3.965   2.642  0.1537  0.7387  0.1845
  106DOPC   H6X14592   6.298   3.981   2.556  0.4685  0.1252  0.3189
  106DOPC   H6Y14593   6.143   4.034   2.638  0.0534  0.7299  1.5671
  106DOPC   C3714594   6.309   3.999   2.768  0.0279 -0.1288  0.2033
  106DOPC   H7X14595   6.391   3.926   2.779 -1.3038 -1.9622 -1.3220
  106DOPC   H7Y14596   6.352   4.099   2.744  1.3063 -0.9801 -1.2175
  106DOPC   C3814597   6.230   4.008   2.896  0.8954  0.0778 -0.2426
  106DOPC   H8X14598   6.255   3.929   2.970 -2.1309 -0.4101  0.3668
  106DOPC   H8Y14599   6.124   3.979   2.879  1.8382 -3.3996 -1.0856
  106DOPC   C3914600   6.246   4.135   2.977  0.4398 -0.2974  0.2819
  106DOPC   H9X14601   6.352   4.157   2.998 -0.0391  1.3759  1.1255
  106DOPC  C31014602   6.157   4.232   3.002 -0.7134 -0.3644 -0.9313
  106DOPC  H10X14603   6.185   4.317   3.066  2.0519 -0.0986 -2.3429
  106DOPC  C31114604   6.012   4.239   2.961  0.5100 -0.5941 -0.0407
  106DOPC  H11X14605   5.947   4.256   3.050  1.0814 -1.6919  0.6037
  106DOPC  H11Y14606   5.976   4.146   2.912 -1.8833  1.5744 -2.8312
  106DOPC  C31214607   5.987   4.351   2.857  0.2933 -0.1721  0.1163
  106DOPC  H12X14608   6.018   4.445   2.908  1.4541 -1.4141  1.8113
  106DOPC  H12Y14609   5.881   4.351   2.825  0.3621  0.7524 -0.1287
  106DOPC  C31314610   6.077   4.351   2.729  0.0689 -0.4804 -0.2523
  106DOPC  H13X14611   6.183   4.351   2.763 -0.5875  0.2890  1.9544
  106DOPC  H13Y14612   6.054   4.257   2.674 -0.3215 -1.9146  2.2031
  106DOPC  C31414613   6.049   4.479   2.649 -0.1470  0.1544 -0.0904
  106DOPC  H14X14614   5.939   4.484   2.630  0.1184  0.3965 -1.7105
  106DOPC  H14Y14615   6.072   4.565   2.715  0.1659 -1.5125  2.0618
  106DOPC  C31514616   6.126   4.489   2.515 -0.0656  0.3186  0.2821
  106DOPC  H15X14617   6.095   4.405   2.449 -0.3451  0.4731  0.2198
  106DOPC  H15Y14618   6.231   4.461   2.542 -0.0648  0.0917  0.0450
  106DOPC  C31614619   6.129   4.623   2.445 -0.1758 -0.1625 -0.0458
  106DOPC  H16X14620   6.021   4.648   2.445 -0.9339 -3.0332 -0.7262
  106DOPC  H16Y14621   6.186   4.703   2.496  0.0048 -1.7349  2.4150
  106DOPC  C31714622   6.161   4.632   2.295  0.7873  0.3656  0.3358
  106DOPC  H17X14623   6.269   4.612   2.274  0.8628  0.2953  0.7963
  106DOPC  H17Y14624   6.106   4.550   2.243  2.4155 -0.5455 -0.0389
  106DOPC  C31814625   6.114   4.761   2.240  0.7214 -0.4741  0.6814
  106DOPC  H18X14626   6.181   4.844   2.273 -0.3791  1.2794 -1.2454
  106DOPC  H18Y14627   6.126   4.750   2.130  0.5368 -1.6748  0.7698
  106DOPC  H18Z14628   6.008   4.776   2.269  1.1636 -1.6645  3.1563
  107DOPC     N14629   4.183   5.446   1.877 -0.0445 -0.4122  0.6564
  107DOPC   C1214630   4.064   5.515   1.915  0.0017 -0.3561 -0.2931
  107DOPC  H12A14631   4.057   5.599   1.847  3.0517  0.9958  0.9135
  107DOPC  H12B14632   4.058   5.555   2.015 -1.4808 -0.7156 -0.2034
  107DOPC   C1314633   4.171   5.400   1.731 -0.2033 -0.4713 -0.5740
  107DOPC  H13A14634   4.167   5.485   1.665 -1.3290  1.4768  1.8008
  107DOPC  H13B14635   4.244   5.324   1.707  0.9150  0.0148  1.0519
  107DOPC  H13C14636   4.076   5.349   1.725 -0.7657  0.4665  0.0327
  107DOPC   C1414637   4.204   5.319   1.954 -0.3726  0.8682  0.1885
  107DOPC  H14A14638   4.216   5.337   2.060  2.3758 -0.6874  0.2431
  107DOPC  H14B14639   4.116   5.255   1.951  1.2515 -1.7429  2.9880
  107DOPC  H14C14640   4.292   5.273   1.911 -0.9413  1.3036 -1.5414
  107DOPC   C1514641   4.302   5.531   1.891 -0.2425 -0.2807 -0.6574
  107DOPC  H15A14642   4.332   5.535   1.995 -0.3845  2.4271 -0.6575
  107DOPC  H15B14643   4.281   5.632   1.860 -0.2929 -0.2804 -0.6218
  107DOPC  H15C14644   4.390   5.493   1.841  1.7105  1.1963  1.4193
  107DOPC   C1114645   3.927   5.448   1.915 -0.0665 -0.6182 -0.1117
  107DOPC  H11A14646   3.936   5.352   1.969 -1.2776 -0.4246  0.4683
  107DOPC  H11B14647   3.859   5.511   1.977  0.5284 -2.1991  2.2441
  107DOPC     P14648   3.825   5.298   1.729 -0.1661  0.3300  0.1418
  107DOPC   O1314649   3.934   5.206   1.761 -0.8110 -0.0810 -0.1239
  107DOPC   O1414650   3.787   5.305   1.586  0.3389  0.5497  0.0312
  107DOPC   O1214651   3.865   5.443   1.790 -0.2497  0.1815 -0.9219
  107DOPC   O1114652   3.706   5.263   1.824  0.7829  0.1803  0.2319
  107DOPC    C114653   3.579   5.335   1.819 -0.2530  1.1297 -0.2211
  107DOPC    HA14654   3.528   5.303   1.726  0.2973  1.4240 -0.6295
  107DOPC    HB14655   3.592   5.445   1.813 -0.1307  1.5667  4.5001
  107DOPC    C214656   3.483   5.294   1.928 -0.2192 -0.0183  0.1640
  107DOPC    HS14657   3.408   5.376   1.930 -1.2653 -0.8021 -2.5970
  107DOPC   O2114658   3.544   5.288   2.058 -0.0807  0.3105  0.0986
  107DOPC   C2114659   3.589   5.404   2.106 -0.1582 -0.1642  0.4271
  107DOPC   O2214660   3.560   5.510   2.055  0.1526  0.1750 -0.6979
  107DOPC   C2214661   3.679   5.376   2.228  0.4563 -0.5105 -0.4173
  107DOPC   H2R14662   3.781   5.415   2.205 -0.2733  1.7913  0.0288
  107DOPC   H2S14663   3.690   5.268   2.249  1.1156 -0.5997 -1.1615
  107DOPC    C314664   3.403   5.161   1.919  0.0341 -0.7027  0.0073
  107DOPC    HX14665   3.480   5.082   1.933 -0.8718 -1.4738  0.7118
  107DOPC    HY14666   3.359   5.141   1.820 -0.7533 -1.1481  0.4382
  107DOPC   O3114667   3.299   5.146   2.027 -0.2416  0.2688 -0.3815
  107DOPC   C3114668   3.175   5.178   1.994  0.0445  0.0622  0.0642
  107DOPC   O3214669   3.134   5.196   1.879  0.1963 -0.1184  0.6140
  107DOPC   C3214670   3.091   5.177   2.123 -0.3506  0.4333  0.5891
  107DOPC   H2X14671   3.047   5.075   2.134 -0.3216  0.3463 -0.0931
  107DOPC   H2Y14672   3.162   5.210   2.202 -1.5319  2.5501  0.8431
  107DOPC   C2314673   3.631   5.453   2.349  0.4182 -0.2812  0.1178
  107DOPC   H3R14674   3.542   5.403   2.392  2.0145 -2.2345  1.3463
  107DOPC   H3S14675   3.605   5.558   2.325  2.4966  0.5181  1.1436
  107DOPC   C2414676   3.741   5.463   2.460 -0.5191  0.3590 -0.6496
  107DOPC   H4R14677   3.837   5.509   2.428 -0.0795 -1.1862 -1.6395
  107DOPC   H4S14678   3.760   5.356   2.480  0.2889 -0.1640 -3.6828
  107DOPC   C2514679   3.691   5.528   2.591 -0.8327  0.3488  0.3539
  107DOPC   H5R14680   3.620   5.455   2.635  0.4746 -0.5750  1.0178
  107DOPC   H5S14681   3.642   5.627   2.588 -0.7076  0.3913 -1.6154
  107DOPC   C2614682   3.813   5.540   2.685  0.7081 -0.0565  0.1096
  107DOPC   H6R14683   3.852   5.437   2.700  2.2277  0.2277 -1.5459
  107DOPC   H6S14684   3.772   5.576   2.782  0.9333  1.8001 -0.4388
  107DOPC   C2714685   3.923   5.637   2.642 -0.1287  0.4162 -0.0943
  107DOPC   H7R14686   3.887   5.729   2.592 -0.2021  1.8183  2.3857
  107DOPC   H7S14687   3.976   5.570   2.571  1.1367 -2.0460  2.9049
  107DOPC   C2814688   4.016   5.678   2.761  0.2983 -0.5146  0.3842
  107DOPC   H8R14689   4.020   5.589   2.827 -0.4350 -0.7135  0.1782
  107DOPC   H8S14690   3.965   5.761   2.813  0.4585  1.3389 -2.2378
  107DOPC   C2914691   4.153   5.716   2.718 -0.1286  0.2369  0.4989
  107DOPC   H9R14692   4.174   5.813   2.671  0.0552  1.0752  2.2642
  107DOPC  C21014693   4.258   5.634   2.715 -0.0918 -0.5809  0.2759
  107DOPC  H10R14694   4.352   5.671   2.671  2.2965 -3.5659  2.4049
  107DOPC  C21114695   4.258   5.491   2.749 -0.4548 -0.0845  0.8056
  107DOPC  H11R14696   4.307   5.432   2.669  0.8046  0.8586  0.8556
  107DOPC  H11S14697   4.157   5.446   2.761 -0.0255 -1.4369 -0.4554
  107DOPC  C21214698   4.347   5.456   2.874  0.0507 -0.2354 -0.1167
  107DOPC  H12R14699   4.323   5.513   2.967 -1.4040 -0.5771 -0.2697
  107DOPC  H12S14700   4.454   5.478   2.852 -0.6273  1.1302 -2.3757
  107DOPC  C21314701   4.325   5.302   2.924 -0.8376  0.4213 -0.6793
  107DOPC  H13R14702   4.216   5.282   2.919 -1.3836  2.4268  1.3077
  107DOPC  H13S14703   4.366   5.299   3.027 -0.1318  0.9794 -0.9352
  107DOPC  C21414704   4.396   5.204   2.834  0.2085  0.4559  0.1552
  107DOPC  H14R14705   4.370   5.242   2.732 -1.1075  1.1567  0.7264
  107DOPC  H14S14706   4.370   5.098   2.852  1.9967 -0.0085  0.2081
  107DOPC  C21514707   4.547   5.208   2.836 -0.6333  0.7032  0.3721
  107DOPC  H15R14708   4.571   5.213   2.944 -1.6359  1.7091  0.5680
  107DOPC  H15S14709   4.591   5.305   2.803 -0.4712  0.8388  0.9830
  107DOPC  C21614710   4.622   5.104   2.758 -0.2176  0.1258  0.3721
  107DOPC  H16R14711   4.618   5.009   2.816  0.1431  0.0192  0.2246
  107DOPC  H16S14712   4.729   5.133   2.747 -0.4194  0.1544 -1.7898
  107DOPC  C21714713   4.568   5.086   2.620  0.2781  0.1075  0.4584
  107DOPC  H17R14714   4.567   5.186   2.572  1.2998  0.3460  0.9102
  107DOPC  H17S14715   4.463   5.051   2.625  0.0799  0.0610 -2.3449
  107DOPC  C21814716   4.640   4.978   2.529 -0.0156 -0.2561  0.2295
  107DOPC  H18R14717   4.620   5.003   2.422  0.8607 -1.8880 -0.3527
  107DOPC  H18S14718   4.619   4.870   2.541  1.6593 -0.9868 -2.5415
  107DOPC  H18T14719   4.747   4.996   2.549 -0.4284  3.6193 -0.2792
  107DOPC   C3314720   2.976   5.276   2.108 -0.1429 -0.8017 -0.2703
  107DOPC   H3X14721   2.902   5.234   2.036  1.4693 -1.5667 -1.5458
  107DOPC   H3Y14722   3.006   5.379   2.081 -2.0962  1.4698  4.9608
  107DOPC   C3414723   2.890   5.292   2.237 -0.1311 -0.9129 -0.1679
  107DOPC   H4X14724   2.810   5.365   2.213 -0.7257 -1.8452 -1.1171
  107DOPC   H4Y14725   2.953   5.339   2.316 -2.2826 -2.3547  2.5938
  107DOPC   C3514726   2.815   5.179   2.294 -0.2937  0.1822 -0.1945
  107DOPC   H5X14727   2.900   5.108   2.288 -0.1071  0.4489 -0.6891
  107DOPC   H5Y14728   2.729   5.146   2.231 -0.6736  0.5098  0.1478
  107DOPC   C3614729   2.784   5.194   2.447  0.4861 -0.4374  0.5130
  107DOPC   H6X14730   2.701   5.268   2.457 -0.4909 -1.6099  1.4204
  107DOPC   H6Y14731   2.748   5.095   2.482 -0.2448 -1.0110 -1.6622
  107DOPC   C3714732   2.896   5.229   2.546 -0.1334  0.1519  0.4685
  107DOPC   H7X14733   2.948   5.319   2.509  2.1029 -1.2139  0.1081
  107DOPC   H7Y14734   2.842   5.255   2.640 -2.1497  1.2824 -0.9338
  107DOPC   C3814735   2.985   5.109   2.578  0.0391 -0.2407  0.5048
  107DOPC   H8X14736   3.032   5.074   2.484  1.8964 -1.2385  1.7508
  107DOPC   H8Y14737   2.916   5.029   2.613 -0.9656  0.3614 -0.0541
  107DOPC   C3914738   3.091   5.143   2.682 -0.5796 -0.5175  0.1359
  107DOPC   H9X14739   3.135   5.244   2.677 -0.2167 -0.6962 -0.3523
  107DOPC  C31014740   3.130   5.070   2.790  0.0115  0.2422 -0.0515
  107DOPC  H10X14741   3.198   5.116   2.864  0.5680  1.2405 -1.1467
  107DOPC  C31114742   3.074   4.927   2.826 -0.5473 -0.1753 -0.3854
  107DOPC  H11X14743   3.150   4.851   2.854 -0.2583  0.4603  0.6228
  107DOPC  H11Y14744   3.036   4.878   2.734  0.6262 -0.4371 -0.7477
  107DOPC  C31214745   2.970   4.921   2.933 -0.2921  0.5618  0.5606
  107DOPC  H12X14746   2.884   4.989   2.911  0.5771  1.4351 -0.2580
  107DOPC  H12Y14747   3.019   4.949   3.028  0.4754  2.0711 -0.2369
  107DOPC  C31314748   2.925   4.781   2.945  0.2962 -0.4859  0.1785
  107DOPC  H13X14749   2.868   4.749   2.855  0.4898  2.6455 -1.1627
  107DOPC  H13Y14750   3.009   4.714   2.973 -1.1358 -1.5041  2.4187
  107DOPC  C31414751   2.819   4.783   3.054  0.2238  0.0265 -0.9460
  107DOPC  H14X14752   2.871   4.814   3.148 -0.5447  1.4527 -0.9712
  107DOPC  H14Y14753   2.749   4.868   3.037  1.6164  1.5713  0.6252
  107DOPC  C31514754   2.752   4.637   3.070  0.3755 -0.7158  0.3713
  107DOPC  H15X14755   2.837   4.567   3.080  0.9295  0.0999  1.6363
  107DOPC  H15Y14756   2.700   4.615   2.974  0.9767 -0.3652 -0.0381
  107DOPC  C31614757   2.661   4.617   3.192 -0.5088  0.5416  0.4588
  107DOPC  H16X14758   2.608   4.711   3.221 -0.7717  0.1540  1.2625
  107DOPC  H16Y14759   2.585   4.540   3.164  0.8950 -0.4735 -0.6656
  107DOPC  C31714760   2.738   4.582   3.317 -0.1174  0.6647 -0.5694
  107DOPC  H17X14761   2.820   4.656   3.331  1.0860 -0.7147 -0.1982
  107DOPC  H17Y14762   2.674   4.612   3.402  0.8489  0.0967  0.3764
  107DOPC  C31814763   2.791   4.441   3.328 -0.6240  0.0055  0.1494
  107DOPC  H18X14764   2.861   4.435   3.414 -0.4122 -2.5124 -0.1239
  107DOPC  H18Y14765   2.707   4.369   3.338 -1.5080  1.0558  0.5498
  107DOPC  H18Z14766   2.842   4.412   3.233 -1.9951 -2.1371 -0.0023
  108DOPC     N14767   1.629   0.365   1.241  0.5786  0.1495 -0.2141
  108DOPC   C1214768   1.590   0.339   1.387  0.2655  0.3093 -0.1807
  108DOPC  H12A14769   1.508   0.269   1.387  0.5730 -0.0808  1.4139
  108DOPC  H12B14770   1.542   0.429   1.423  1.9649  1.5699 -0.9097
  108DOPC   C1314771   1.686   0.238   1.180  0.0928  0.0687 -0.0319
  108DOPC  H13A14772   1.719   0.248   1.077  1.0028 -0.9080  0.1442
  108DOPC  H13B14773   1.779   0.222   1.233  0.5128  0.8731 -0.4968
  108DOPC  H13C14774   1.628   0.150   1.201 -1.7148  1.3252  0.4912
  108DOPC   C1414775   1.729   0.470   1.214 -0.7010  0.2857 -0.3810
  108DOPC  H14A14776   1.733   0.502   1.111  0.0383  1.9415  0.1445
  108DOPC  H14B14777   1.692   0.556   1.267 -1.4683 -0.1497 -0.1996
  108DOPC  H14C14778   1.826   0.443   1.253 -0.6646 -0.5514 -1.0259
  108DOPC   C1514779   1.503   0.379   1.157 -0.3541  0.3476 -0.0283
  108DOPC  H15A14780   1.425   0.307   1.179  0.5408 -0.0652  1.9917
  108DOPC  H15B14781   1.531   0.376   1.053  1.0026 -0.8794  0.3378
  108DOPC  H15C14782   1.452   0.472   1.176 -2.9841 -1.1694  0.8676
  108DOPC   C1114783   1.694   0.296   1.488 -0.2172 -0.0927 -0.4542
  108DOPC  H11A14784   1.643   0.296   1.587 -0.3600 -0.6575 -0.5250
  108DOPC  H11B14785   1.720   0.190   1.468  1.5137 -0.2211  1.9844
  108DOPC     P14786   1.947   0.332   1.468 -0.2075 -0.3005  0.0026
  108DOPC   O1314787   2.031   0.454   1.433  0.3009  0.2780 -0.3256
  108DOPC   O1414788   1.955   0.223   1.371 -0.3578  0.6829 -0.9970
  108DOPC   O1214789   1.804   0.381   1.497  0.5965 -0.4183 -0.2803
  108DOPC   O1114790   2.009   0.282   1.598 -0.0671 -0.2268  0.7863
  108DOPC    C114791   1.953   0.231   1.718 -0.6250 -0.4493  0.6456
  108DOPC    HA14792   1.952   0.121   1.708 -0.4750 -0.3227 -0.9728
  108DOPC    HB14793   1.845   0.255   1.726 -0.7408 -0.4706 -0.6643
  108DOPC    C214794   2.025   0.263   1.854  0.0867  0.2782  0.4807
  108DOPC    HS14795   2.014   0.371   1.876 -0.5070 -0.0203  1.7286
  108DOPC   O2114796   2.161   0.219   1.866  0.3438 -0.4201 -0.3597
  108DOPC   C2114797   2.262   0.288   1.822 -0.2846  0.4499  0.0412
  108DOPC   O2214798   2.259   0.396   1.765 -0.3019  0.1623 -0.6305
  108DOPC   C2214799   2.393   0.202   1.833 -0.0206 -1.0720  0.2177
  108DOPC   H2R14800   2.484   0.266   1.828 -0.9761  0.2517 -1.0356
  108DOPC   H2S14801   2.400   0.141   1.740  0.0716 -0.0165 -0.4905
  108DOPC    C314802   1.947   0.191   1.966 -0.1190 -0.2462 -0.2721
  108DOPC    HX14803   1.940   0.082   1.943  0.0102 -0.0768 -1.1638
  108DOPC    HY14804   1.840   0.219   1.959 -0.1688 -0.2625  0.3834
  108DOPC   O3114805   1.989   0.227   2.103  0.1920  0.4624  0.6089
  108DOPC   C3114806   1.931   0.335   2.160  0.9241 -0.1889 -0.3658
  108DOPC   O3214807   1.853   0.411   2.109 -0.1361 -0.1791 -0.2466
  108DOPC   C3214808   1.994   0.352   2.300  0.3633  0.5245 -0.3146
  108DOPC   H2X14809   1.972   0.259   2.357 -0.2887  1.4291  0.9837
  108DOPC   H2Y14810   2.105   0.362   2.290  0.4011  2.6252  1.4026
  108DOPC   C2314811   2.385   0.121   1.971  0.1238 -0.7912  0.6008
  108DOPC   H3R14812   2.481   0.066   1.978  1.0427  0.5998 -0.4424
  108DOPC   H3S14813   2.295   0.057   1.975 -2.6144  2.7622  0.7417
  108DOPC   C2414814   2.372   0.202   2.103 -0.1351  0.3741 -0.5705
  108DOPC   H4R14815   2.354   0.127   2.182 -0.0801 -2.0934 -2.7696
  108DOPC   H4S14816   2.285   0.272   2.098 -1.3428 -1.0938 -0.7420
  108DOPC   C2514817   2.496   0.289   2.131  0.3114 -0.1304  0.5298
  108DOPC   H5R14818   2.526   0.358   2.050  0.5943 -1.8196 -0.8526
  108DOPC   H5S14819   2.591   0.234   2.153  0.3527  0.1058  0.9641
  108DOPC   C2614820   2.480   0.369   2.260 -0.2117  0.7828 -0.8366
  108DOPC   H6R14821   2.396   0.441   2.255 -2.0920 -1.3147 -0.7480
  108DOPC   H6S14822   2.576   0.424   2.270  0.4118 -0.1823 -1.2846
  108DOPC   C2714823   2.453   0.291   2.391 -0.7536 -0.2304 -0.7072
  108DOPC   H7R14824   2.354   0.242   2.376 -1.0062  0.4917 -1.4538
  108DOPC   H7S14825   2.450   0.347   2.487 -2.3270  0.9565 -1.4106
  108DOPC   C2814826   2.556   0.174   2.422 -0.2120  0.2065  0.1480
  108DOPC   H8R14827   2.551   0.109   2.332 -4.0191 -2.8604  2.2649
  108DOPC   H8S14828   2.504   0.127   2.508  1.3779  0.8399  1.5090
  108DOPC   C2914829   2.690   0.239   2.456 -0.1476  0.2734 -0.0723
  108DOPC   H9R14830   2.720   0.322   2.391 -2.3453  0.0866 -1.4168
  108DOPC  C21014831   2.761   0.214   2.561  0.1450  0.4248 -0.5115
  108DOPC  H10R14832   2.860   0.262   2.568 -0.1703  1.0202 -0.0256
  108DOPC  C21114833   2.726   0.112   2.671 -0.1352  0.2906  0.2721
  108DOPC  H11R14834   2.752   0.010   2.636  0.9709  0.0267  1.7567
  108DOPC  H11S14835   2.621   0.098   2.704  0.5218  0.1391  2.4984
  108DOPC  C21214836   2.804   0.128   2.800 -0.3899  0.5360 -0.2812
  108DOPC  H12R14837   2.800   0.235   2.829 -2.0397  0.1687  0.9727
  108DOPC  H12S14838   2.911   0.107   2.779 -0.2326  0.7693  0.2744
  108DOPC  C21314839   2.758   0.047   2.922 -0.5774 -0.1085 -0.4482
  108DOPC  H13R14840   2.852   0.017   2.973 -0.2336  1.6080 -0.0198
  108DOPC  H13S14841   2.716   8.489   2.879  0.9650 -0.9721 -0.1462
  108DOPC  C21414842   2.652   0.107   3.008  0.2743  0.6623  0.5684
  108DOPC  H14R14843   2.554   0.093   2.958  0.4791 -2.3901  0.8460
  108DOPC  H14S14844   2.678   0.215   3.013  1.6500  0.3416  0.6272
  108DOPC  C21514845   2.643   0.045   3.142 -0.3207  0.1907 -0.4733
  108DOPC  H15R14846   2.750   0.032   3.171  0.6518 -0.5198 -3.8630
  108DOPC  H15S14847   2.599   8.479   3.134 -1.5999  0.5789  1.2219
  108DOPC  C21614848   2.560   0.140   3.229 -0.4037 -0.3286  0.2313
  108DOPC  H16R14849   2.479   0.178   3.164  0.4015 -0.9604 -1.1945
  108DOPC  H16S14850   2.622   0.222   3.271 -2.3126  0.6115  1.3126
  108DOPC  C21714851   2.512   0.080   3.356  0.7710 -0.0700 -0.0403
  108DOPC  H17R14852   2.596   0.063   3.426  1.5694  2.6866 -0.2302
  108DOPC  H17S14853   2.470   8.513   3.338 -0.1216  0.8360 -4.0235
  108DOPC  C21814854   2.417   0.171   3.425 -0.1055 -0.3917 -0.1953
  108DOPC  H18R14855   2.355   0.223   3.348  1.3159  1.0352 -0.4418
  108DOPC  H18S14856   2.473   0.248   3.483 -0.1416 -1.3506  1.1365
  108DOPC  H18T14857   2.342   0.119   3.488 -2.6961  2.0216 -1.0935
  108DOPC   C3314858   1.938   0.470   2.379 -0.1066  0.0370  0.0252
  108DOPC   H3X14859   1.827   0.476   2.368 -0.1249 -1.2573 -0.7564
  108DOPC   H3Y14860   1.991   0.559   2.338  0.5454  0.1369  1.0420
  108DOPC   C3414861   1.970   0.467   2.528  0.5845 -0.2760 -0.1523
  108DOPC   H4X14862   1.904   0.397   2.584  1.1100  0.8377  1.9496
  108DOPC   H4Y14863   1.929   0.563   2.566  0.1553 -0.3116 -0.5228
  108DOPC   C3514864   2.116   0.452   2.567 -0.0183  0.2470  0.1722
  108DOPC   H5X14865   2.175   0.540   2.536  0.6759 -0.4882 -0.6429
  108DOPC   H5Y14866   2.158   0.364   2.515 -3.4412 -1.1124 -0.6183
  108DOPC   C3614867   2.126   0.406   2.711 -0.0351 -0.2736  0.4780
  108DOPC   H6X14868   2.074   0.481   2.775 -3.4207 -2.1843  0.2223
  108DOPC   H6Y14869   2.064   0.314   2.712  1.0921 -1.0791 -0.5916
  108DOPC   C3714870   2.270   0.369   2.737 -0.1775  1.1320 -0.5041
  108DOPC   H7X14871   2.300   0.289   2.666  0.6210  0.9973 -0.0228
  108DOPC   H7Y14872   2.328   0.459   2.705  0.1053  2.2840  2.8899
  108DOPC   C3814873   2.302   0.336   2.888 -0.3980  0.5451  0.0973
  108DOPC   H8X14874   2.403   0.292   2.899 -0.4736 -0.0812 -1.4866
  108DOPC   H8Y14875   2.230   0.264   2.932  1.3267 -0.6383  1.1017
  108DOPC   C3914876   2.290   0.465   2.963 -0.3322  0.1363 -0.1518
  108DOPC   H9X14877   2.190   0.502   2.992 -0.0584 -0.0869  1.1466
  108DOPC  C31014878   2.397   0.536   3.003  0.2864  0.1284  0.2236
  108DOPC  H10X14879   2.398   0.632   3.057 -0.3559 -0.8726  2.1419
  108DOPC  C31114880   2.541   0.495   2.983 -0.2289 -0.3281  0.6549
  108DOPC  H11X14881   2.588   0.570   2.916  0.6037 -0.8510  0.6457
  108DOPC  H11Y14882   2.552   0.398   2.931  0.4208  1.5109 -2.9209
  108DOPC  C31214883   2.627   0.488   3.114 -0.8119 -0.8711  0.0386
  108DOPC  H12X14884   2.733   0.473   3.085  0.1452 -0.1420  2.8402
  108DOPC  H12Y14885   2.588   0.398   3.167 -1.2327 -1.0714 -0.6036
  108DOPC  C31314886   2.629   0.616   3.200  0.4021 -0.1176 -0.1137
  108DOPC  H13X14887   2.662   0.704   3.141  3.9680 -0.0513  1.7215
  108DOPC  H13Y14888   2.532   0.635   3.251 -0.4141  0.2664 -1.7531
  108DOPC  C31414889   2.738   0.616   3.309  0.4444  0.1163 -0.4108
  108DOPC  H14X14890   2.840   0.589   3.273  1.0025 -0.5160  1.5194
  108DOPC  H14Y14891   2.748   0.720   3.349  0.0294 -0.6594  1.8677
  108DOPC  C31514892   2.700   0.521   3.433  0.0701 -0.0842 -0.5489
  108DOPC  H15X14893   2.674   0.426   3.382  1.1458  0.1507 -1.5629
  108DOPC  H15Y14894   2.612   0.568   3.483  0.8913  0.4634  0.4271
  108DOPC  C31614895   2.818   0.502   3.533 -0.0061 -0.4906  0.3570
  108DOPC  H16X14896   2.903   0.460   3.475  0.1322  1.7333 -1.1379
  108DOPC  H16Y14897   2.852   0.592   3.589  1.9163 -0.1856 -1.2040
  108DOPC  C31714898   2.779   0.397   3.643  0.3425  0.8547  0.0029
  108DOPC  H17X14899   2.688   0.438   3.691 -0.3435  0.2700 -0.7672
  108DOPC  H17Y14900   2.754   0.301   3.592 -1.5383  2.5423 -2.5390
  108DOPC  C31814901   2.879   0.363   3.755 -0.7021 -0.0088  0.6971
  108DOPC  H18X14902   2.829   0.333   3.850 -1.8322 -0.5466 -0.0354
  108DOPC  H18Y14903   2.958   0.297   3.713 -1.0639  0.5982 -1.0225
  108DOPC  H18Z14904   2.940   0.449   3.789 -0.9390  1.1132 -1.5171
  109DOPC     N14905   3.781   2.020   1.430 -0.2647 -0.4859 -0.9098
  109DOPC   C1214906   3.794   1.995   1.579 -1.1785 -0.1920  0.7080
  109DOPC  H12A14907   3.859   2.075   1.611  0.8121 -0.3677 -2.5381
  109DOPC  H12B14908   3.837   1.900   1.606  1.4573  0.7620  0.1730
  109DOPC   C1314909   3.703   2.147   1.417 -0.2413  0.3047  0.2857
  109DOPC  H13A14910   3.696   2.167   1.311 -0.8801 -0.3482  0.1982
  109DOPC  H13B14911   3.608   2.130   1.465  0.5846 -1.6687  1.3308
  109DOPC  H13C14912   3.765   2.224   1.460  1.1208 -1.1974  1.1369
  109DOPC   C1414913   3.703   1.905   1.374  0.2403 -0.5957 -0.1828
  109DOPC  H14A14914   3.653   1.931   1.281 -0.8069 -0.5619  0.3783
  109DOPC  H14B14915   3.767   1.819   1.367  1.0287 -0.7518  5.0867
  109DOPC  H14C14916   3.627   1.876   1.445  1.1090  0.1907  1.0863
  109DOPC   C1514917   3.923   2.039   1.366  0.0626 -0.2678 -0.7281
  109DOPC  H15A14918   3.918   2.039   1.258  0.3880 -1.5221 -0.7606
  109DOPC  H15B14919   3.999   1.967   1.394 -0.1171  0.5352  2.1216
  109DOPC  H15C14920   3.965   2.131   1.403  0.8326 -0.5591 -0.8456
  109DOPC   C1114921   3.674   1.996   1.679  0.1628  0.5446  0.2105
  109DOPC  H11A14922   3.708   1.994   1.784 -0.4427  0.2389  0.4091
  109DOPC  H11B14923   3.609   2.084   1.661  0.8539  0.8901 -0.6484
  109DOPC     P14924   3.613   1.751   1.723  0.0006  0.3374 -0.0362
  109DOPC   O1314925   3.757   1.713   1.715 -0.2224  0.2088  0.5265
  109DOPC   O1414926   3.515   1.652   1.671 -0.0451  0.6557  0.4913
  109DOPC   O1214927   3.588   1.888   1.650  0.4119  0.0618  0.4581
  109DOPC   O1114928   3.580   1.792   1.872  0.2465  0.6386  0.2976
  109DOPC    C114929   3.448   1.827   1.910  0.0452  0.1107  0.0381
  109DOPC    HA14930   3.362   1.823   1.839 -1.2626  0.8389  1.5018
  109DOPC    HB14931   3.438   1.937   1.926 -0.9407 -0.1861  1.7305
  109DOPC    C214932   3.405   1.756   2.038  0.1472 -0.5047  0.6219
  109DOPC    HS14933   3.298   1.772   2.061  0.5928  2.3740  1.0208
  109DOPC   O2114934   3.481   1.813   2.141 -0.2594 -0.4647 -0.1243
  109DOPC   C2114935   3.428   1.908   2.205  0.4970  0.2026 -0.7013
  109DOPC   O2214936   3.327   1.970   2.165 -0.3646 -0.1104  0.8711
  109DOPC   C2214937   3.499   1.938   2.338 -0.7717 -0.1213  0.0516
  109DOPC   H2R14938   3.544   2.039   2.326  0.1759 -0.6215 -0.8277
  109DOPC   H2S14939   3.567   1.852   2.355  0.2620  0.4353 -1.0450
  109DOPC    C314940   3.432   1.601   2.024 -0.6002  0.3298 -0.1643
  109DOPC    HX14941   3.542   1.594   2.018 -0.5075  1.3815  0.1687
  109DOPC    HY14942   3.385   1.573   1.927  0.2579  0.4382 -0.6176
  109DOPC   O3114943   3.382   1.531   2.144  0.0314 -0.0126 -0.1783
  109DOPC   C3114944   3.273   1.444   2.129  0.3069 -0.3977 -0.2867
  109DOPC   O3214945   3.201   1.441   2.033 -0.2199  0.4618  0.5756
  109DOPC   C3214946   3.258   1.370   2.262 -0.2960 -0.0666 -0.6574
  109DOPC   H2X14947   3.334   1.289   2.254  2.6357  2.4671 -0.2253
  109DOPC   H2Y14948   3.284   1.446   2.338  0.3705  1.0449 -1.9430
  109DOPC   C2314949   3.400   1.945   2.452  0.8145 -0.2476  0.2630
  109DOPC   H3R14950   3.352   1.845   2.459 -0.8338  0.4688 -0.4636
  109DOPC   H3S14951   3.319   2.016   2.430  0.0395  0.0674  3.5700
  109DOPC   C2414952   3.457   1.980   2.590  0.3148 -0.0111  0.9760
  109DOPC   H4R14953   3.493   2.085   2.589 -1.6761  0.7162  0.3735
  109DOPC   H4S14954   3.545   1.916   2.614  0.6346  0.1094  0.1369
  109DOPC   C2514955   3.363   1.965   2.705 -0.2879  0.3802 -0.0829
  109DOPC   H5R14956   3.336   1.858   2.717  0.7392  0.2637  1.4207
  109DOPC   H5S14957   3.268   2.021   2.689 -0.1555  0.4766 -0.5352
  109DOPC   C2614958   3.426   2.017   2.838 -0.2251 -0.0667  0.0058
  109DOPC   H6R14959   3.482   2.107   2.802 -0.4697 -0.1915 -0.7058
  109DOPC   H6S14960   3.506   1.944   2.862  0.4770  0.1844 -1.4533
  109DOPC   C2714961   3.326   2.059   2.943  0.9310 -0.6871  0.2583
  109DOPC   H7R14962   3.268   1.970   2.975 -2.4983  1.3459  0.1874
  109DOPC   H7S14963   3.256   2.135   2.901  1.0711 -1.1926 -0.9142
  109DOPC   C2814964   3.387   2.144   3.058 -1.1555  0.0032 -0.1483
  109DOPC   H8R14965   3.423   2.240   3.016  1.1433 -0.3023  0.9731
  109DOPC   H8S14966   3.473   2.089   3.102 -0.8513  1.4888  1.1976
  109DOPC   C2914967   3.274   2.169   3.158 -0.3709  0.5452 -0.6700
  109DOPC   H9R14968   3.174   2.175   3.112 -0.2549  2.4802 -0.7607
  109DOPC  C21014969   3.291   2.184   3.291 -0.4750  0.0461  0.4434
  109DOPC  H10R14970   3.210   2.213   3.359  1.0132  1.0678  1.8699
  109DOPC  C21114971   3.423   2.161   3.371  0.4231  0.0267  0.1972
  109DOPC  H11R14972   3.508   2.159   3.299 -0.7625 -0.7664 -1.2315
  109DOPC  H11S14973   3.410   2.065   3.424  1.8380  0.9400  2.3462
  109DOPC  C21214974   3.449   2.268   3.485 -0.4128 -0.4207  0.6029
  109DOPC  H12R14975   3.536   2.238   3.547 -0.4656 -2.0934 -0.0829
  109DOPC  H12S14976   3.368   2.258   3.561 -0.1724 -1.0464  0.7816
  109DOPC  C21314977   3.484   2.412   3.444  0.1195 -0.0533  0.1226
  109DOPC  H13R14978   3.506   2.474   3.533  1.4973 -0.7027  0.2512
  109DOPC  H13S14979   3.397   2.454   3.389 -0.0147  1.3250  1.3384
  109DOPC  C21414980   3.605   2.415   3.352 -0.2053 -0.6184  0.0476
  109DOPC  H14R14981   3.592   2.354   3.259 -0.1256 -0.8711  0.2006
  109DOPC  H14S14982   3.694   2.381   3.408 -0.1789 -0.2395  0.2348
  109DOPC  C21514983   3.637   2.557   3.327 -0.3882 -0.0371  0.2125
  109DOPC  H15R14984   3.735   2.586   3.370 -0.9099  2.2411  0.0239
  109DOPC  H15S14985   3.564   2.622   3.381  1.0466  1.9443 -0.0921
  109DOPC  C21614986   3.635   2.603   3.181 -0.4105  0.4898 -0.0642
  109DOPC  H16R14987   3.668   2.709   3.189 -0.2691  0.4267  0.2280
  109DOPC  H16S14988   3.535   2.600   3.133  1.0931 -0.2077 -3.4004
  109DOPC  C21714989   3.714   2.516   3.085 -0.7466  0.9542  0.3115
  109DOPC  H17R14990   3.702   2.406   3.089  0.3157  0.8388  0.5572
  109DOPC  H17S14991   3.821   2.535   3.106 -0.8394  0.0385  1.7096
  109DOPC  C21814992   3.711   2.548   2.933 -0.2368  0.2375 -0.7024
  109DOPC  H18R14993   3.615   2.504   2.898  0.0426 -0.6245 -0.4006
  109DOPC  H18S14994   3.799   2.526   2.870 -1.2082 -1.1181 -1.6508
  109DOPC  H18T14995   3.707   2.658   2.919 -1.9239  0.0131 -2.5188
  109DOPC   C3314996   3.117   1.313   2.288  0.2671  0.0699 -0.1429
  109DOPC   H3X14997   3.070   1.246   2.213  1.2524  1.7498 -2.3768
  109DOPC   H3Y14998   3.045   1.396   2.301  2.4509  2.0548 -0.0866
  109DOPC   C3414999   3.125   1.236   2.417  0.4732 -0.3721 -0.1506
  109DOPC   H4X15000   3.167   1.298   2.499 -0.3537 -0.1769  0.1314
  109DOPC   H4Y15001   3.189   1.147   2.403  0.5599 -0.3752  0.2597
  109DOPC   C3515002   2.987   1.189   2.459  0.1341 -0.1806 -0.4842
  109DOPC   H5X15003   2.955   1.122   2.377 -0.1416 -0.8420  0.1521
  109DOPC   H5Y15004   2.910   1.270   2.464 -1.6316 -1.7878 -0.4915
  109DOPC   C3615005   2.994   1.100   2.590 -0.2709  0.0012 -0.9146
  109DOPC   H6X15006   3.063   1.017   2.564 -0.8218 -0.1387 -1.9920
  109DOPC   H6Y15007   3.027   1.153   2.682 -0.4839 -1.2832 -0.0867
  109DOPC   C3715008   2.863   1.028   2.623  0.8247  0.9312 -0.7345
  109DOPC   H7X15009   2.779   1.099   2.644 -0.5046 -1.0681  1.0889
  109DOPC   H7Y15010   2.843   0.971   2.530 -1.0330 -1.2943  0.9092
  109DOPC   C3815011   2.878   0.927   2.740  0.3107 -0.2489 -0.0542
  109DOPC   H8X15012   2.965   0.955   2.803  0.6143 -0.6222 -0.3042
  109DOPC   H8Y15013   2.916   0.834   2.692 -0.2243  0.5960 -2.2675
  109DOPC   C3915014   2.753   0.898   2.818 -0.5995  0.1412 -0.2096
  109DOPC   H9X15015   2.740   0.964   2.905  0.5423  0.2112 -0.0774
  109DOPC  C31015016   2.654   0.812   2.790  0.6605  0.7177  1.2192
  109DOPC  H10X15017   2.570   0.802   2.860 -1.8534  0.7922 -1.5848
  109DOPC  C31115018   2.653   0.733   2.661 -0.6278 -0.4253  0.1552
  109DOPC  H11X15019   2.645   0.624   2.681  1.4368 -0.6942 -0.2601
  109DOPC  H11Y15020   2.747   0.739   2.602 -1.1564 -2.4129 -0.9815
  109DOPC  C31215021   2.532   0.765   2.574 -0.0823 -0.5055  0.4102
  109DOPC  H12X15022   2.510   0.873   2.584 -0.5236 -0.6163  0.6634
  109DOPC  H12Y15023   2.441   0.705   2.599 -0.7669 -0.1976 -1.2681
  109DOPC  C31315024   2.564   0.745   2.421 -0.6630 -0.1937  0.2342
  109DOPC  H13X15025   2.653   0.809   2.401 -0.2859 -0.6999  0.2620
  109DOPC  H13Y15026   2.598   0.641   2.404  0.8510  0.4930 -1.1956
  109DOPC  C31415027   2.447   0.779   2.331 -0.8102  0.1514 -0.0880
  109DOPC  H14X15028   2.363   0.711   2.357  0.4413 -2.0661 -1.5508
  109DOPC  H14Y15029   2.426   0.887   2.350  0.3460  0.0411  2.0714
  109DOPC  C31515030   2.474   0.755   2.183  0.2411 -0.0294 -0.2527
  109DOPC  H15X15031   2.501   0.649   2.168  1.1574  0.2308 -0.5084
  109DOPC  H15Y15032   2.561   0.817   2.151  1.4311 -2.2656 -1.5801
  109DOPC  C31615033   2.348   0.783   2.093 -1.0067 -0.5330  0.5512
  109DOPC  H16X15034   2.298   0.881   2.108 -2.2366 -1.3645  2.1770
  109DOPC  H16Y15035   2.396   0.782   1.992  0.0817 -1.0865  1.0521
  109DOPC  C31715036   2.260   0.657   2.096  0.2141 -0.4134  0.3614
  109DOPC  H17X15037   2.320   0.569   2.064  1.6026  0.6288 -0.0159
  109DOPC  H17Y15038   2.224   0.625   2.196  2.0584 -1.1424  0.8342
  109DOPC  C31815039   2.139   0.661   2.009  0.0500 -0.2142  0.2943
  109DOPC  H18X15040   2.096   0.561   2.030  1.0391 -1.1103 -1.6528
  109DOPC  H18Y15041   2.068   0.742   2.037 -0.9878 -0.0748 -2.4338
  109DOPC  H18Z15042   2.180   0.672   1.906  0.0852 -2.4602  0.0178
  110DOPC     N15043   5.454   6.537   1.723  0.2609  0.1200  0.4807
  110DOPC   C1215044   5.381   6.591   1.850 -0.3484  0.2089  0.1435
  110DOPC  H12A15045   5.308   6.667   1.824  0.1535  0.6661  0.0504
  110DOPC  H12B15046   5.453   6.647   1.907 -0.6308 -0.0817  0.7910
  110DOPC   C1315047   5.352   6.470   1.632 -0.1085 -0.2354  1.0781
  110DOPC  H13A15048   5.401   6.435   1.543  0.6491 -1.3212  1.9018
  110DOPC  H13B15049   5.311   6.379   1.672 -0.7564 -0.4257  0.0223
  110DOPC  H13C15050   5.275   6.541   1.603 -0.3107 -1.3353 -1.3109
  110DOPC   C1415051   5.562   6.432   1.738  0.4778  0.8976  0.0025
  110DOPC  H14A15052   5.655   6.475   1.771  0.6490 -0.1009  0.8955
  110DOPC  H14B15053   5.544   6.350   1.807 -0.4199  0.9438 -0.1666
  110DOPC  H14C15054   5.575   6.383   1.643 -0.7266 -0.4189  0.4791
  110DOPC   C1515055   5.515   6.660   1.657  0.1122  0.3300  0.2349
  110DOPC  H15A15056   5.580   6.632   1.575  0.5948 -2.1241  1.3852
  110DOPC  H15B15057   5.578   6.728   1.712  0.8514  0.5667 -0.8630
  110DOPC  H15C15058   5.437   6.725   1.618 -0.1572  0.3335  0.7727
  110DOPC   C1115059   5.320   6.488   1.948 -0.6120  0.7953  0.2163
  110DOPC  H11A15060   5.289   6.539   2.041 -1.6328  0.1474  0.2421
  110DOPC  H11B15061   5.230   6.441   1.903 -0.5025  0.5028  0.2963
  110DOPC     P15062   5.523   6.401   2.089  0.4035 -0.3128 -0.3644
  110DOPC   O1315063   5.564   6.543   2.070  0.1962 -0.6990  0.1215
  110DOPC   O1415064   5.626   6.299   2.084 -0.4463  0.0159  0.2115
  110DOPC   O1215065   5.410   6.378   1.977 -0.4916 -0.2543 -0.3138
  110DOPC   O1115066   5.439   6.390   2.221  1.2917 -0.0676 -0.1539
  110DOPC    C115067   5.351   6.276   2.249  0.6313  0.3498  0.1574
  110DOPC    HA15068   5.336   6.274   2.359  1.2198  2.7798  0.3228
  110DOPC    HB15069   5.401   6.179   2.225  0.0228 -0.5261  2.2022
  110DOPC    C215070   5.209   6.289   2.191  0.8601 -0.6965  0.5253
  110DOPC    HS15071   5.207   6.302   2.081  3.7111  1.0540  0.5832
  110DOPC   O2115072   5.154   6.402   2.258 -0.3780 -0.0483  0.4490
  110DOPC   C2115073   5.054   6.462   2.204  0.1439  0.7080 -0.2512
  110DOPC   O2215074   4.996   6.433   2.099 -0.3949  0.4488 -0.3565
  110DOPC   C2215075   5.014   6.581   2.288 -0.1289  0.0040  0.2324
  110DOPC   H2R15076   5.058   6.679   2.261  0.9965 -0.5656 -0.0891
  110DOPC   H2S15077   5.061   6.554   2.385  1.8840  1.7354 -0.1929
  110DOPC    C315078   5.126   6.160   2.223 -0.1493 -0.2010  0.2195
  110DOPC    HX15079   5.162   6.077   2.158 -2.4644 -3.0550  2.3302
  110DOPC    HY15080   5.026   6.179   2.178  0.7975 -0.0304 -1.9112
  110DOPC   O3115081   5.122   6.125   2.360  0.0331  0.4217  0.4560
  110DOPC   C3115082   5.000   6.118   2.410  0.3328 -0.3077 -0.4321
  110DOPC   O3215083   4.895   6.123   2.349 -0.4504 -0.0776 -0.5094
  110DOPC   C3215084   5.010   6.099   2.559  0.1562 -0.5840  0.2904
  110DOPC   H2X15085   4.914   6.127   2.606  0.9258 -0.6337  1.9757
  110DOPC   H2Y15086   5.037   5.991   2.566  1.8927 -0.3883 -2.1444
  110DOPC   C2315087   4.862   6.599   2.323 -0.2535  0.5644  0.5216
  110DOPC   H3R15088   4.798   6.600   2.232  0.6261  1.2824 -0.1048
  110DOPC   H3S15089   4.851   6.697   2.375  0.1484  1.3968 -0.9345
  110DOPC   C2415090   4.813   6.484   2.418  0.7541 -0.0231  0.1777
  110DOPC   H4R15091   4.903   6.450   2.473  1.9589  4.0130  1.0095
  110DOPC   H4S15092   4.781   6.398   2.355  1.6709  0.2217 -0.6441
  110DOPC   C2515093   4.708   6.537   2.512  0.3405 -0.4743  0.4879
  110DOPC   H5R15094   4.627   6.580   2.450  0.0874  2.3288  2.5575
  110DOPC   H5S15095   4.732   6.618   2.583  0.1690  1.2066 -1.2985
  110DOPC   C2615096   4.647   6.432   2.605 -0.5321  0.0688  0.6721
  110DOPC   H6R15097   4.617   6.338   2.554  0.2317 -0.0282  0.3849
  110DOPC   H6S15098   4.560   6.476   2.658 -0.1086  1.0174  0.6071
  110DOPC   C2715099   4.747   6.398   2.721 -0.1136  0.3919 -0.0255
  110DOPC   H7R15100   4.737   6.481   2.794  1.1681 -0.2344  0.8870
  110DOPC   H7S15101   4.856   6.401   2.702  0.1734 -2.0757  0.9651
  110DOPC   C2815102   4.717   6.263   2.784  0.2951 -0.2670  0.0605
  110DOPC   H8R15103   4.801   6.222   2.843  0.9811 -1.6188 -1.7669
  110DOPC   H8S15104   4.705   6.181   2.710 -0.5801 -0.7046  0.6647
  110DOPC   C2915105   4.587   6.254   2.865 -0.3798 -0.4369  0.6187
  110DOPC   H9R15106   4.500   6.292   2.809  0.4531 -0.4379 -0.7413
  110DOPC  C21015107   4.565   6.220   2.993 -0.1173 -0.0831 -0.2881
  110DOPC  H10R15108   4.463   6.213   3.033  0.1518  1.1013  0.6626
  110DOPC  C21115109   4.671   6.185   3.102 -0.9751 -1.0551 -0.1594
  110DOPC  H11R15110   4.776   6.212   3.080 -0.9806 -0.4073  0.5760
  110DOPC  H11S15111   4.665   6.078   3.133 -1.0815 -0.7820  0.7924
  110DOPC  C21215112   4.636   6.262   3.226 -0.0675 -0.2355  0.2922
  110DOPC  H12R15113   4.706   6.213   3.297 -0.6571 -0.7239  0.5479
  110DOPC  H12S15114   4.531   6.257   3.260 -0.1265 -0.2725  0.1089
  110DOPC  C21315115   4.660   6.419   3.209  0.0839 -1.0469 -0.6113
  110DOPC  H13R15116   4.570   6.458   3.156 -0.6939 -2.2071 -0.1736
  110DOPC  H13S15117   4.743   6.429   3.136 -1.5408  0.3010 -2.3866
  110DOPC  C21415118   4.687   6.490   3.347 -0.4644  0.2984 -0.3141
  110DOPC  H14R15119   4.790   6.457   3.370 -0.5950  0.4779  0.5808
  110DOPC  H14S15120   4.620   6.445   3.424  0.0590 -1.3608 -0.7869
  110DOPC  C21515121   4.675   6.646   3.355  0.3575  0.1118 -0.4059
  110DOPC  H15R15122   4.567   6.666   3.372  0.2122 -1.4649  0.6594
  110DOPC  H15S15123   4.701   6.674   3.251 -0.1808  0.3530 -0.4794
  110DOPC  C21615124   4.774   6.713   3.445 -0.5284  0.2435  0.6894
  110DOPC  H16R15125   4.879   6.689   3.417  0.1194  2.1642  1.3104
  110DOPC  H16S15126   4.767   6.675   3.550  0.4081  1.8297  1.3600
  110DOPC  C21715127   4.765   6.867   3.453  0.9029 -0.1614  0.4986
  110DOPC  H17R15128   4.676   6.889   3.516 -0.5293 -0.3756 -1.3599
  110DOPC  H17S15129   4.740   6.902   3.351 -0.1303  0.4392  0.9406
  110DOPC  C21815130   4.896   6.929   3.494 -0.5529 -0.8654 -0.5185
  110DOPC  H18R15131   4.887   7.040   3.493 -0.7531 -0.8584  0.6729
  110DOPC  H18S15132   4.976   6.891   3.427 -1.1315 -2.4136 -0.3470
  110DOPC  H18T15133   4.922   6.909   3.600  0.7905  3.5978  0.2333
  110DOPC   C3315134   5.116   6.189   2.627 -0.4843  0.1812 -0.1736
  110DOPC   H3X15135   5.097   6.289   2.582 -0.9225  0.4095  0.4971
  110DOPC   H3Y15136   5.215   6.145   2.601 -0.2347  0.8574 -0.3965
  110DOPC   C3415137   5.112   6.186   2.782 -0.4702 -0.4768  0.0092
  110DOPC   H4X15138   5.121   6.079   2.811 -0.2052 -0.5077 -0.1852
  110DOPC   H4Y15139   5.015   6.215   2.826 -0.6318  0.2324 -0.7954
  110DOPC   C3515140   5.227   6.274   2.843  0.2234 -0.3556 -0.0564
  110DOPC   H5X15141   5.196   6.379   2.825  0.9214  0.7757  4.1374
  110DOPC   H5Y15142   5.326   6.259   2.795 -0.4401  0.7116 -1.8574
  110DOPC   C3615143   5.247   6.253   2.993  0.0555 -0.4667  0.8131
  110DOPC   H6X15144   5.225   6.146   3.011 -0.7622 -0.3876  0.3334
  110DOPC   H6Y15145   5.349   6.279   3.030  0.4658 -1.2431  0.2438
  110DOPC   C3715146   5.141   6.325   3.073 -0.1390  0.3211  0.5861
  110DOPC   H7X15147   5.135   6.424   3.022  0.2336 -0.5868 -1.3224
  110DOPC   H7Y15148   5.038   6.286   3.068 -0.8365  2.0704  0.6496
  110DOPC   C3815149   5.188   6.348   3.220 -0.2890 -0.0939 -0.0338
  110DOPC   H8X15150   5.213   6.248   3.262  2.6535  0.8486  0.7139
  110DOPC   H8Y15151   5.096   6.384   3.272 -0.2412 -0.4875  0.3286
  110DOPC   C3915152   5.305   6.448   3.239  0.2239  0.3121  0.3117
  110DOPC   H9X15153   5.401   6.393   3.242  0.2134  0.2510 -0.3551
  110DOPC  C31015154   5.305   6.579   3.264 -0.1165  0.1049 -0.4714
  110DOPC  H10X15155   5.407   6.621   3.261  0.4182 -1.1946 -2.5821
  110DOPC  C31115156   5.183   6.671   3.281  0.2417  0.1530  0.7429
  110DOPC  H11X15157   5.211   6.775   3.308 -3.2682  1.2246  0.6339
  110DOPC  H11Y15158   5.120   6.636   3.366  1.9625  0.3284  2.1638
  110DOPC  C31215159   5.086   6.690   3.159 -0.1655 -0.1274  0.3918
  110DOPC  H12X15160   4.991   6.728   3.202 -1.9178 -3.1760 -0.4373
  110DOPC  H12Y15161   5.043   6.595   3.119 -0.3516  0.1449 -0.0619
  110DOPC  C31315162   5.140   6.788   3.052  0.0394  0.7311  0.0863
  110DOPC  H13X15163   5.114   6.895   3.071  1.9819  1.4088 -0.7570
  110DOPC  H13Y15164   5.251   6.778   3.046 -0.1777 -1.4026 -1.0901
  110DOPC  C31415165   5.085   6.746   2.920  0.4456  0.2177  0.2760
  110DOPC  H14X15166   5.141   6.795   2.837  2.7076 -0.5339  1.2680
  110DOPC  H14Y15167   5.112   6.639   2.910  0.1827  0.1693  0.0782
  110DOPC  C31515168   4.930   6.762   2.900 -0.3808 -0.0323 -0.6220
  110DOPC  H15X15169   4.881   6.701   2.980 -0.2468 -1.2503 -1.4313
  110DOPC  H15Y15170   4.915   6.690   2.817 -0.5413  0.0486 -0.6633
  110DOPC  C31615171   4.873   6.902   2.868 -0.2333 -0.0107 -0.3595
  110DOPC  H16X15172   4.765   6.885   2.845 -0.4300  1.5795 -0.7467
  110DOPC  H16Y15173   4.881   6.972   2.954 -2.4400 -2.7884  2.3174
  110DOPC  C31715174   4.931   6.966   2.744 -0.2785  0.1398 -0.0722
  110DOPC  H17X15175   4.881   7.065   2.742  1.0603  0.8437  0.2741
  110DOPC  H17Y15176   5.033   6.999   2.774  0.6987 -3.6118  1.3613
  110DOPC  C31815177   4.915   6.903   2.609 -0.7487 -0.0509 -0.5483
  110DOPC  H18X15178   4.975   6.811   2.588 -1.7809 -0.4899 -1.6511
  110DOPC  H18Y15179   4.811   6.864   2.608  0.4083 -3.9067  2.3355
  110DOPC  H18Z15180   4.935   6.976   2.528 -1.1987  1.2805  0.5187
  111DOPC     N15181   6.190   1.446   1.601 -0.3188  0.9063  0.2908
  111DOPC   C1215182   6.237   1.533   1.714  0.1236 -0.4717 -0.2819
  111DOPC  H12A15183   6.345   1.527   1.719  0.1725 -0.5464 -1.2663
  111DOPC  H12B15184   6.190   1.495   1.803 -0.5057 -0.6476 -0.6818
  111DOPC   C1315185   6.216   1.299   1.640  0.1651 -0.1781 -0.3501
  111DOPC  H13A15186   6.312   1.291   1.689 -1.1974  0.4727  2.6888
  111DOPC  H13B15187   6.143   1.269   1.714 -0.3153 -0.1320 -0.8006
  111DOPC  H13C15188   6.214   1.245   1.546  1.0670 -1.5605  0.3878
  111DOPC   C1415189   6.281   1.473   1.480  0.2779 -0.1148  0.3661
  111DOPC  H14A15190   6.380   1.437   1.506  0.3174 -0.1260  0.2025
  111DOPC  H14B15191   6.247   1.419   1.393  0.8961  0.2661 -0.1234
  111DOPC  H14C15192   6.292   1.579   1.461  2.2344 -0.4608 -0.6886
  111DOPC   C1515193   6.048   1.464   1.571 -0.5792 -0.1513 -0.4148
  111DOPC  H15A15194   5.991   1.438   1.659  0.3436  2.2327  0.9939
  111DOPC  H15B15195   6.005   1.409   1.488 -1.7187  0.8736 -0.5299
  111DOPC  H15C15196   6.019   1.566   1.552 -0.3230 -0.2414 -1.3331
  111DOPC   C1115197   6.206   1.683   1.706  0.3824  0.2888 -0.5301
  111DOPC  H11A15198   6.096   1.695   1.697 -0.0409 -0.9975  1.9291
  111DOPC  H11B15199   6.239   1.729   1.802 -0.0140  1.0541 -0.7514
  111DOPC     P15200   6.408   1.809   1.598 -0.3776  0.0287  0.0880
  111DOPC   O1315201   6.422   1.910   1.491 -0.8289 -0.0988  0.3425
  111DOPC   O1415202   6.506   1.699   1.594 -0.3165  0.3694 -0.1937
  111DOPC   O1215203   6.262   1.744   1.597  0.1474 -0.2316 -0.3216
  111DOPC   O1115204   6.412   1.871   1.742 -0.4766  0.3385 -0.1026
  111DOPC    C115205   6.350   2.001   1.771 -0.4122  0.4654 -0.1283
  111DOPC    HA15206   6.244   2.006   1.737 -0.0967 -2.6296 -1.9756
  111DOPC    HB15207   6.408   2.090   1.741 -1.0674  0.8264 -0.3486
  111DOPC    C215208   6.342   2.013   1.923  0.3903 -0.7865 -0.2270
  111DOPC    HS15209   6.448   2.030   1.952 -0.2066  0.7617  1.2021
  111DOPC   O2115210   6.288   1.892   1.979  0.3587  0.2790 -0.2676
  111DOPC   C2115211   6.386   1.817   2.042 -0.1201  0.0943  0.3115
  111DOPC   O2215212   6.508   1.837   2.033  0.2982  0.1285  0.2455
  111DOPC   C2215213   6.309   1.712   2.124 -0.0248  0.2422  0.0537
  111DOPC   H2R15214   6.291   1.616   2.073  1.3343 -0.0275  0.0352
  111DOPC   H2S15215   6.217   1.767   2.154 -0.4423 -0.0791 -0.6174
  111DOPC    C315216   6.245   2.132   1.960 -0.4441  0.2113 -0.5272
  111DOPC    HX15217   6.140   2.117   1.928 -0.6092 -2.3403  0.9008
  111DOPC    HY15218   6.272   2.221   1.899 -4.9450  2.0779 -0.1574
  111DOPC   O3115219   6.243   2.170   2.098  0.2917 -0.3564 -0.6938
  111DOPC   C3115220   6.351   2.237   2.144  0.4466 -0.0050  0.5202
  111DOPC   O3215221   6.456   2.257   2.086 -0.0040  0.1163 -0.3301
  111DOPC   C3215222   6.322   2.272   2.291  0.0101 -0.6716 -0.0983
  111DOPC   H2X15223   6.212   2.262   2.303 -0.0500 -0.2753 -0.3009
  111DOPC   H2Y15224   6.374   2.189   2.344 -0.0697 -1.4829 -1.2581
  111DOPC   C2315225   6.392   1.671   2.245  0.6552 -0.3531 -0.7954
  111DOPC   H3R15226   6.492   1.634   2.213  2.3207  1.3404  2.0291
  111DOPC   H3S15227   6.338   1.593   2.303  0.5159 -0.0378 -0.4982
  111DOPC   C2415228   6.414   1.786   2.347 -0.2938 -0.6575 -0.3622
  111DOPC   H4R15229   6.490   1.856   2.306 -0.6414  1.2319  2.0087
  111DOPC   H4S15230   6.458   1.726   2.428  3.0681  1.5275 -0.3791
  111DOPC   C2515231   6.284   1.862   2.387 -0.4186  0.0655  0.3874
  111DOPC   H5R15232   6.190   1.805   2.402 -1.4105  1.0957 -1.5606
  111DOPC   H5S15233   6.270   1.939   2.309  1.9550  1.3224  1.1161
  111DOPC   C2615234   6.302   1.932   2.514 -0.2831 -0.0867 -1.0433
  111DOPC   H6R15235   6.394   1.994   2.503  0.9512 -1.9864 -2.0370
  111DOPC   H6S15236   6.322   1.856   2.593 -3.3156  1.7833  1.7898
  111DOPC   C2715237   6.187   2.021   2.555 -0.2761 -0.4410 -0.1311
  111DOPC   H7R15238   6.148   2.081   2.470  0.3355 -2.8827 -2.2500
  111DOPC   H7S15239   6.225   2.087   2.637  0.0303 -0.0641 -0.5747
  111DOPC   C2815240   6.061   1.949   2.603  0.4088 -0.2381 -0.5120
  111DOPC   H8R15241   6.103   1.882   2.681  0.9600  0.6706 -0.0007
  111DOPC   H8S15242   6.030   1.878   2.524  0.0029 -2.2151  1.3493
  111DOPC   C2915243   5.946   2.032   2.651  0.4108  0.2340  0.7629
  111DOPC   H9R15244   5.855   2.031   2.590  0.7013 -0.1318  0.3342
  111DOPC  C21015245   5.937   2.093   2.769  0.7129  0.3846  0.2876
  111DOPC  H10R15246   5.846   2.155   2.781  1.2151  1.4796 -1.2862
  111DOPC  C21115247   6.047   2.086   2.880  0.0994  0.1618 -0.2931
  111DOPC  H11R15248   6.050   2.179   2.942  1.8735 -0.0953  0.0491
  111DOPC  H11S15249   6.149   2.092   2.838  0.0221 -0.6686 -0.6108
  111DOPC  C21215250   6.041   1.965   2.975 -0.6622  0.1873 -0.1583
  111DOPC  H12R15251   6.130   1.973   3.041  0.4989  1.1333 -1.7632
  111DOPC  H12S15252   6.059   1.873   2.914  1.6070 -0.8270  1.8394
  111DOPC  C21315253   5.924   1.973   3.072 -0.2059  0.1472  0.2241
  111DOPC  H13R15254   5.836   2.015   3.018  0.4109 -1.0311 -1.8109
  111DOPC  H13S15255   5.959   2.044   3.150  2.1408 -1.3536  0.6187
  111DOPC  C21415256   5.906   1.838   3.139 -0.0326 -0.0901 -0.6537
  111DOPC  H14R15257   5.920   1.754   3.068  0.2083  0.5560 -1.3858
  111DOPC  H14S15258   5.799   1.839   3.171  0.3371  2.2576  0.7338
  111DOPC  C21515259   5.993   1.832   3.265  0.0581  0.3643 -0.0167
  111DOPC  H15R15260   5.996   1.929   3.320  0.5986  0.0023  0.5992
  111DOPC  H15S15261   6.095   1.800   3.235  0.1527 -0.5873  1.2381
  111DOPC  C21615262   5.917   1.741   3.359  0.0432  0.5870 -0.5055
  111DOPC  H16R15263   5.905   1.638   3.319  1.6108 -0.4859  1.5321
  111DOPC  H16S15264   5.819   1.787   3.386  1.2485  2.4253  1.0724
  111DOPC  C21715265   5.988   1.709   3.491 -0.5298 -0.1967  0.1822
  111DOPC  H17R15266   5.905   1.665   3.550 -2.2161  3.5217  0.9298
  111DOPC  H17S15267   6.017   1.800   3.547  1.1843 -2.0237  2.4298
  111DOPC  C21815268   6.106   1.619   3.472  0.3835 -0.2284 -0.7554
  111DOPC  H18R15269   6.192   1.689   3.462  1.2753 -1.1894 -0.0648
  111DOPC  H18S15270   6.088   1.548   3.389 -0.7206 -2.9738  1.6554
  111DOPC  H18T15271   6.117   1.566   3.569  0.0381 -0.6596 -0.9496
  111DOPC   C3315272   6.380   2.417   2.322  0.7391 -0.1119  0.0082
  111DOPC   H3X15273   6.295   2.489   2.320  1.3868  0.7473  1.6894
  111DOPC   H3Y15274   6.458   2.450   2.250 -0.5582  1.3908 -0.7702
  111DOPC   C3415275   6.424   2.420   2.464 -0.0259 -0.2385 -0.1797
  111DOPC   H4X15276   6.499   2.501   2.478  1.3297 -1.4563 -0.1295
  111DOPC   H4Y15277   6.477   2.325   2.486  1.2291  0.0155 -1.8254
  111DOPC   C3515278   6.299   2.442   2.559 -0.5483  0.6723 -0.8295
  111DOPC   H5X15279   6.222   2.364   2.542 -0.3085 -0.2216  1.8467
  111DOPC   H5Y15280   6.251   2.542   2.546 -0.7371  0.8595  1.0094
  111DOPC   C3615281   6.337   2.430   2.704  0.6232 -0.1101  0.0312
  111DOPC   H6X15282   6.381   2.330   2.721  1.1899  0.2292  0.5945
  111DOPC   H6Y15283   6.416   2.504   2.729  0.1485  0.7967 -1.0921
  111DOPC   C3715284   6.217   2.462   2.792 -0.1917 -0.1023  0.0529
  111DOPC   H7X15285   6.167   2.549   2.745 -0.7516 -0.5281 -0.1527
  111DOPC   H7Y15286   6.138   2.384   2.779 -0.7407  0.2962  0.9203
  111DOPC   C3815287   6.251   2.494   2.939 -0.4295 -0.1155 -0.3249
  111DOPC   H8X15288   6.162   2.545   2.982 -0.1078 -2.4333  3.5152
  111DOPC   H8Y15289   6.336   2.565   2.940  0.5679 -1.2377 -1.6093
  111DOPC   C3915290   6.287   2.379   3.027  0.1502 -0.0563  1.5064
  111DOPC   H9X15291   6.372   2.319   2.991 -0.0744  0.7965 -0.6130
  111DOPC  C31015292   6.223   2.322   3.129  0.0637 -0.0066  0.3189
  111DOPC  H10X15293   6.284   2.249   3.186  1.5013 -0.8452 -2.1397
  111DOPC  C31115294   6.090   2.362   3.197  0.4248  0.9988  0.1640
  111DOPC  H11X15295   6.057   2.278   3.261 -0.6773  1.3410  0.0665
  111DOPC  H11Y15296   6.011   2.394   3.126  2.3455 -0.7791 -2.9943
  111DOPC  C31215297   6.123   2.480   3.289  0.4025  0.4528  1.0174
  111DOPC  H12X15298   6.029   2.528   3.324 -0.4910  0.1004 -0.7863
  111DOPC  H12Y15299   6.172   2.563   3.233 -0.3473 -1.3027 -2.5430
  111DOPC  C31315300   6.192   2.449   3.415  0.4424 -0.0050  0.3815
  111DOPC  H13X15301   6.114   2.401   3.477 -0.5162  2.3977  1.1608
  111DOPC  H13Y15302   6.281   2.384   3.398  0.8020  0.6475 -0.3050
  111DOPC  C31415303   6.241   2.569   3.498 -0.0492 -1.0839  0.0593
  111DOPC  H14X15304   6.302   2.637   3.436 -2.5708  1.0492 -0.2839
  111DOPC  H14Y15305   6.150   2.628   3.524 -0.3316 -1.8277  0.8139
  111DOPC  C31515306   6.315   2.520   3.623  0.0405 -0.7699  0.1864
  111DOPC  H15X15307   6.404   2.459   3.595  0.7695  0.0047  0.7995
  111DOPC  H15Y15308   6.259   2.447   3.685 -2.4640 -0.1502 -1.1941
  111DOPC  C31615309   6.376   2.646   3.694 -0.9062  0.4739 -0.1452
  111DOPC  H16X15310   6.465   2.679   3.636 -1.2876  1.8586  0.0200
  111DOPC  H16Y15311   6.295   2.721   3.680 -1.7783 -0.1708  1.2380
  111DOPC  C31715312   6.414   2.627   3.835  0.2116  0.2284 -0.2726
  111DOPC  H17X15313   6.319   2.595   3.884 -0.4217  2.1609 -0.1591
  111DOPC  H17Y15314   6.494   2.550   3.841  0.9575  0.9428 -0.7576
  111DOPC  C31815315   6.468   2.758   3.899 -0.3248  0.1744  0.3380
  111DOPC  H18X15316   6.539   2.797   3.823  1.4451 -1.0860  1.2693
  111DOPC  H18Y15317   6.386   2.830   3.917 -0.5969 -0.5810  2.4431
  111DOPC  H18Z15318   6.519   2.747   3.997 -0.7047  0.6970  0.5973
  112DOPC     N15319   7.338   8.342   1.321 -0.3576 -0.3556  0.2344
  112DOPC   C1215320   7.209   8.274   1.279 -0.3289 -0.3951 -0.1443
  112DOPC  H12A15321   7.212   8.275   1.171 -2.2338 -1.4090 -0.2635
  112DOPC  H12B15322   7.126   8.341   1.299  0.1148 -0.2170  1.1884
  112DOPC   C1315323   7.456   8.263   1.278  0.6617  0.0506  0.7076
  112DOPC  H13A15324   7.461   8.159   1.305 -0.7512 -0.3464 -0.4482
  112DOPC  H13B15325   7.470   8.281   1.173 -0.3414 -1.4326  0.2919
  112DOPC  H13C15326   7.546   8.314   1.311 -0.3052  1.7816  0.8231
  112DOPC   C1415327   7.339   8.349   1.469  0.1906  0.2620  0.1890
  112DOPC  H14A15328   7.306   8.256   1.513 -1.9214  1.4937  1.3622
  112DOPC  H14B15329   7.434   8.380   1.512 -0.2474  1.2731  0.4621
  112DOPC  H14C15330   7.274   8.429   1.501  2.9638  1.4313  3.6598
  112DOPC   C1515331   7.337   8.483   1.270  0.0692  0.1671  0.3940
  112DOPC  H15A15332   7.321   8.476   1.164 -1.0353  1.7556  0.4142
  112DOPC  H15B15333   7.432   8.532   1.289 -1.9287  3.2659  3.6048
  112DOPC  H15C15334   7.260   0.014   1.306  0.6913  0.7335  0.7064
  112DOPC   C1115335   7.182   8.135   1.314 -0.1639 -0.2303  0.8422
  112DOPC  H11A15336   7.079   8.116   1.277  0.8042 -1.5749 -1.2972
  112DOPC  H11B15337   7.251   8.068   1.260 -0.4933 -0.3467  0.5611
  112DOPC     P15338   7.064   8.105   1.554 -0.5774  0.1675 -0.1515
  112DOPC   O1315339   7.003   7.964   1.537  0.3142 -0.1828 -0.5007
  112DOPC   O1415340   6.975   8.222   1.529 -0.1996  0.7682  0.5435
  112DOPC   O1215341   7.190   8.116   1.458  0.2494  0.8707 -0.1017
  112DOPC   O1115342   7.129   8.117   1.690  0.1142 -0.2133  0.2111
  112DOPC    C115343   7.217   8.012   1.733  0.3966 -0.7441 -0.2882
  112DOPC    HA15344   7.320   8.052   1.721 -0.0437  0.3395 -0.5324
  112DOPC    HB15345   7.204   7.924   1.666  1.0158  1.2751 -3.2867
  112DOPC    C215346   7.192   7.985   1.887  0.0774 -0.7289  0.3138
  112DOPC    HS15347   7.254   7.898   1.918 -0.8903 -0.9104  1.8988
  112DOPC   O2115348   7.061   7.963   1.920  0.4433  0.4006  0.6681
  112DOPC   C2115349   7.033   7.829   1.898 -0.3998 -0.0683 -0.0066
  112DOPC   O2215350   7.115   7.741   1.877 -0.4893  0.4283 -0.1135
  112DOPC   C2215351   6.883   7.800   1.917  0.2207 -0.0758 -0.6041
  112DOPC   H2R15352   6.855   7.693   1.900  1.7701 -0.5841 -0.0627
  112DOPC   H2S15353   6.826   7.862   1.844  0.7627  2.4059  0.9908
  112DOPC    C315354   7.255   8.108   1.973  0.6817  0.2641 -0.3346
  112DOPC    HX15355   7.201   8.202   1.950  1.7844  1.1019  0.4289
  112DOPC    HY15356   7.363   8.124   1.950  0.9701  1.1282  1.4672
  112DOPC   O3115357   7.236   8.075   2.112 -0.2841  0.8872 -0.6735
  112DOPC   C3115358   7.167   8.158   2.182  0.3747  0.7303 -0.0990
  112DOPC   O3215359   7.111   8.259   2.140 -0.3423 -0.4552 -0.0859
  112DOPC   C3215360   7.167   8.107   2.328  0.1947  1.1996 -0.2145
  112DOPC   H2X15361   7.161   7.996   2.339 -1.5164  1.4383  1.7753
  112DOPC   H2Y15362   7.254   8.143   2.388 -0.0831 -1.3673  1.9461
  112DOPC   C2315363   6.835   7.833   2.059  0.2794  0.1328  0.0858
  112DOPC   H3R15364   6.725   7.842   2.046  0.0170 -1.6275  0.9489
  112DOPC   H3S15365   6.869   7.933   2.095  1.6416  0.0267 -0.8027
  112DOPC   C2415366   6.854   7.724   2.161  0.0458 -0.4487 -0.1326
  112DOPC   H4R15367   6.777   7.644   2.163 -0.5901  0.1566  1.6204
  112DOPC   H4S15368   6.833   7.774   2.257  1.4152  0.9977 -0.5426
  112DOPC   C2515369   6.991   7.677   2.180 -1.0688  0.1149  0.4903
  112DOPC   H5R15370   7.048   7.764   2.219 -0.7902 -0.2805  0.9871
  112DOPC   H5S15371   7.029   7.631   2.086 -0.4370  0.6719  0.4624
  112DOPC   C2615372   7.002   7.562   2.281 -0.0016 -0.1474 -0.0856
  112DOPC   H6R15373   6.960   7.600   2.378  1.2096  2.3904 -0.4696
  112DOPC   H6S15374   7.107   7.531   2.296 -0.2845 -0.7372  0.7994
  112DOPC   C2715375   6.942   7.430   2.230 -0.8789  0.5958  0.0104
  112DOPC   H7R15376   6.990   7.391   2.137  0.9709 -0.1177  1.2074
  112DOPC   H7S15377   6.837   7.446   2.199 -0.7565 -0.8787 -1.3204
  112DOPC   C2815378   6.925   7.316   2.339  0.5503  0.1445 -0.0461
  112DOPC   H8R15379   6.870   7.242   2.277 -1.5538  1.1981  0.4832
  112DOPC   H8S15380   6.858   7.359   2.416 -1.2025 -1.1239 -0.7993
  112DOPC   C2915381   7.059   7.263   2.393 -0.2988 -0.5816  0.1042
  112DOPC   H9R15382   7.129   7.256   2.309 -0.1105  1.0246  0.0926
  112DOPC  C21015383   7.084   7.216   2.517 -0.1627  0.3063  0.0803
  112DOPC  H10R15384   7.187   7.186   2.539  0.6823  0.6796 -2.9466
  112DOPC  C21115385   6.986   7.209   2.631 -0.5837 -0.4230 -0.2109
  112DOPC  H11R15386   6.954   7.110   2.670  1.2115 -0.4638  1.3137
  112DOPC  H11S15387   6.888   7.257   2.614 -1.0910 -0.0558  3.0631
  112DOPC  C21215388   7.047   7.280   2.753 -0.6155  0.0455 -0.1335
  112DOPC  H12R15389   7.071   7.385   2.725 -1.7967  0.5705  0.7785
  112DOPC  H12S15390   7.138   7.223   2.780 -1.1626 -0.9734 -0.4119
  112DOPC  C21315391   6.946   7.292   2.869 -0.9579 -0.1017 -0.2785
  112DOPC  H13R15392   6.841   7.303   2.833 -2.0228 -2.4561  1.8131
  112DOPC  H13S15393   6.979   7.380   2.928  0.2192 -0.4949 -0.3287
  112DOPC  C21415394   6.958   7.170   2.959  0.1362  0.2139  0.5106
  112DOPC  H14R15395   7.056   7.174   3.013 -1.6730  1.5381  4.0292
  112DOPC  H14S15396   6.958   7.081   2.893  0.5680 -1.4436  2.6442
  112DOPC  C21515397   6.848   7.167   3.068  0.2061  0.7310 -0.5592
  112DOPC  H15R15398   6.750   7.151   3.019  1.2890  0.3850 -2.7509
  112DOPC  H15S15399   6.848   7.272   3.104 -2.5431  0.0257  1.8749
  112DOPC  C21615400   6.893   7.087   3.184  0.5888  0.1380 -0.7002
  112DOPC  H16R15401   6.832   7.117   3.272 -0.8989 -1.2876 -1.1910
  112DOPC  H16S15402   6.997   7.116   3.209  0.6004  0.8455 -1.5506
  112DOPC  C21715403   6.885   6.937   3.158  0.4243 -0.3500 -0.1581
  112DOPC  H17R15404   6.966   6.927   3.083  0.8752  0.7301  0.1711
  112DOPC  H17S15405   6.790   6.912   3.106  1.0217 -0.2707 -1.3007
  112DOPC  C21815406   6.906   6.858   3.287 -0.7317  0.5950 -0.0212
  112DOPC  H18R15407   6.817   6.863   3.352  0.3800 -0.2907  1.6386
  112DOPC  H18S15408   7.002   6.889   3.334 -0.0092  2.9585 -2.7357
  112DOPC  H18T15409   6.909   6.752   3.254 -0.1926  0.6226 -0.0792
  112DOPC   C3315410   7.034   8.143   2.406 -0.0586  0.7426  0.3575
  112DOPC   H3X15411   6.940   8.096   2.369  0.6206  0.2231 -0.7568
  112DOPC   H3Y15412   7.012   8.249   2.381  0.1404  0.5799 -0.5651
  112DOPC   C3415413   7.045   8.113   2.546  0.4759 -0.1887  0.0048
  112DOPC   H4X15414   6.991   8.198   2.593  1.1420  1.3216 -1.8147
  112DOPC   H4Y15415   7.152   8.125   2.573  0.5776 -1.2924  0.1246
  112DOPC   C3515416   6.987   7.975   2.586  0.6034  0.1158  0.2720
  112DOPC   H5X15417   7.062   7.894   2.568  0.6841 -0.1111  1.5356
  112DOPC   H5Y15418   6.893   7.943   2.537  0.2061 -0.7967  1.5727
  112DOPC   C3615419   6.957   7.973   2.734  0.7142 -0.3789  0.1428
  112DOPC   H6X15420   6.955   7.874   2.783 -1.2231 -1.6634 -2.3237
  112DOPC   H6Y15421   7.034   8.040   2.777 -0.2214 -1.0037  3.0168
  112DOPC   C3715422   6.823   8.040   2.774  0.7382  0.2362  0.4141
  112DOPC   H7X15423   6.815   8.126   2.705 -1.8756 -1.3458 -1.4017
  112DOPC   H7Y15424   6.743   7.970   2.744  2.4342  0.0030 -4.5083
  112DOPC   C3815425   6.794   8.081   2.920 -0.2674 -0.0345 -1.3027
  112DOPC   H8X15426   6.877   8.139   2.967 -2.3138  0.3455  2.2234
  112DOPC   H8Y15427   6.795   7.992   2.986 -0.7908  0.9327  0.0560
  112DOPC   C3915428   6.676   8.170   2.940  0.5520  0.4326  0.4930
  112DOPC   H9X15429   6.647   8.236   2.856 -2.1192 -2.5434 -1.1526
  112DOPC  C31015430   6.587   8.173   3.043 -0.6164  0.0991  0.0402
  112DOPC  H10X15431   6.504   8.244   3.028 -0.4277  0.0885 -1.1554
  112DOPC  C31115432   6.600   8.083   3.163  0.0513  0.4361  0.0129
  112DOPC  H11X15433   6.544   8.138   3.242 -0.6575 -0.7413  0.3453
  112DOPC  H11Y15434   6.706   8.095   3.196 -0.0331  0.3500  0.3185
  112DOPC  C31215435   6.584   7.933   3.157 -0.2158 -0.7813  0.0680
  112DOPC  H12X15436   6.685   7.894   3.135  0.7979  0.8816  1.5126
  112DOPC  H12Y15437   6.517   7.890   3.079  1.0516 -3.9431  0.5742
  112DOPC  C31315438   6.537   7.865   3.291  0.2117  0.2141 -0.7896
  112DOPC  H13X15439   6.434   7.889   3.324  0.9388 -0.2297  2.1351
  112DOPC  H13Y15440   6.548   7.757   3.265  1.3561  0.0958  0.0773
  112DOPC  C31415441   6.633   7.890   3.411  0.2196  0.4990 -0.2471
  112DOPC  H14X15442   6.739   7.891   3.378 -0.0348  1.1902 -1.0741
  112DOPC  H14Y15443   6.626   7.996   3.442  1.1267  1.0316 -1.7580
  112DOPC  C31515444   6.630   7.788   3.523 -0.5420 -0.3785 -0.6444
  112DOPC  H15X15445   6.717   7.791   3.592  0.8872  1.5861 -2.3947
  112DOPC  H15Y15446   6.622   7.691   3.469 -3.3593 -1.0941  0.9011
  112DOPC  C31615447   6.500   7.802   3.607  0.0063  0.7060 -0.3731
  112DOPC  H16X15448   6.480   7.904   3.648  1.3065  0.9490 -0.3196
  112DOPC  H16Y15449   6.413   7.789   3.539 -0.6436  2.0353  0.1627
  112DOPC  C31715450   6.488   7.705   3.727  0.2289  0.8018 -0.1128
  112DOPC  H17X15451   6.578   7.711   3.791  1.0493 -0.0620 -1.1455
  112DOPC  H17Y15452   6.394   7.722   3.784 -0.7057 -0.9201 -1.0387
  112DOPC  C31815453   6.471   7.559   3.676 -0.5776 -0.5737  0.0058
  112DOPC  H18X15454   6.384   7.575   3.608  0.2550  0.5967 -0.8193
  112DOPC  H18Y15455   6.565   7.527   3.626 -1.2866  0.4842 -2.1333
  112DOPC  H18Z15456   6.461   7.492   3.764  1.4152 -2.4647 -1.0989
  113DOPC     N15457   5.503   7.453   1.201  0.1758 -0.2725  0.1376
  113DOPC   C1215458   5.454   7.439   1.345  0.1295 -0.2867  0.3779
  113DOPC  H12A15459   5.349   7.414   1.344 -0.5378  2.2311  0.3976
  113DOPC  H12B15460   5.466   7.534   1.394 -1.5591  0.2112 -0.1132
  113DOPC   C1315461   5.650   7.495   1.208  0.0001 -0.7853  0.2724
  113DOPC  H13A15462   5.694   7.490   1.110 -1.8245 -1.5536 -0.5732
  113DOPC  H13B15463   5.656   7.596   1.245 -2.0499 -0.0380 -1.2459
  113DOPC  H13C15464   5.702   7.424   1.270 -0.5789  0.3180  2.1077
  113DOPC   C1415465   5.425   7.556   1.124 -1.0436 -0.5964 -0.1161
  113DOPC  H14A15466   5.434   7.651   1.174 -0.4105 -0.9170  0.3906
  113DOPC  H14B15467   5.480   7.581   1.035 -0.1603 -0.4446  0.4590
  113DOPC  H14C15468   5.324   7.527   1.095 -0.6957 -1.4322 -0.5327
  113DOPC   C1515469   5.488   7.329   1.133  0.0213  0.9927  0.3591
  113DOPC  H15A15470   5.557   7.261   1.179 -0.7473  1.1600  1.8330
  113DOPC  H15B15471   5.513   7.331   1.028 -2.0588  1.0486 -0.1893
  113DOPC  H15C15472   5.390   7.288   1.113  0.9870 -0.3160 -2.0728
  113DOPC   C1115473   5.534   7.347   1.437 -0.0191  0.6184  0.0655
  113DOPC  H11A15474   5.465   7.317   1.519 -0.1265 -0.8482 -0.5375
  113DOPC  H11B15475   5.550   7.250   1.385 -1.0221 -0.3714  1.5122
  113DOPC     P15476   5.644   7.532   1.589  0.0105 -0.0039 -0.2899
  113DOPC   O1315477   5.567   7.643   1.528  0.1499 -0.1350  0.2915
  113DOPC   O1415478   5.780   7.549   1.646  0.2788  0.2082 -0.2250
  113DOPC   O1215479   5.650   7.409   1.487 -0.0033 -0.1704  0.4598
  113DOPC   O1115480   5.558   7.489   1.710  0.3591 -0.0183 -0.0050
  113DOPC    C115481   5.592   7.372   1.794  1.1418 -0.6394  0.0580
  113DOPC    HA15482   5.675   7.307   1.759  0.4054 -2.2229  1.1111
  113DOPC    HB15483   5.503   7.306   1.796  0.9270 -0.3879 -0.7103
  113DOPC    C215484   5.612   7.425   1.938  0.5806  0.1102 -0.2780
  113DOPC    HS15485   5.540   7.505   1.963 -0.4397 -1.0479  0.5954
  113DOPC   O2115486   5.753   7.464   1.947  0.2128  0.1609  0.5512
  113DOPC   C2115487   5.766   7.593   1.926 -0.4504 -0.0575  0.2141
  113DOPC   O2215488   5.676   7.670   1.905 -0.1351  0.4578  0.1145
  113DOPC   C2215489   5.914   7.629   1.925 -0.0181  0.9916  0.0060
  113DOPC   H2R15490   5.929   7.729   1.878 -0.4999  1.3757  0.6658
  113DOPC   H2S15491   5.960   7.555   1.856  3.4540  0.1338  2.9403
  113DOPC    C315492   5.590   7.309   2.033  0.1245  0.2949  0.2350
  113DOPC    HX15493   5.674   7.237   2.029 -0.6535 -0.6584  0.6150
  113DOPC    HY15494   5.499   7.254   2.001 -0.2555 -0.3285  2.2379
  113DOPC   O3115495   5.587   7.362   2.169  0.1003  0.2338 -0.0520
  113DOPC   C3115496   5.533   7.283   2.257  0.2647 -0.0015 -0.9038
  113DOPC   O3215497   5.487   7.172   2.240  0.4456 -0.6417 -0.2233
  113DOPC   C3215498   5.525   7.359   2.393  1.0732  0.4016 -0.1330
  113DOPC   H2X15499   5.576   7.294   2.468 -0.7586 -0.1366  0.6880
  113DOPC   H2Y15500   5.570   7.459   2.376 -2.5622  1.9616 -1.5642
  113DOPC   C2315501   6.001   7.603   2.057 -0.0069 -0.0784  0.5959
  113DOPC   H3R15502   6.109   7.627   2.046  0.5112 -2.3557  0.3912
  113DOPC   H3S15503   5.995   7.495   2.082 -2.5707  0.1140  1.0563
  113DOPC   C2415504   5.954   7.676   2.186 -0.5885 -0.2601  0.3553
  113DOPC   H4R15505   5.850   7.643   2.207 -0.6406 -0.4683 -0.1990
  113DOPC   H4S15506   5.963   7.785   2.169 -1.3961 -0.3797 -0.9522
  113DOPC   C2515507   6.044   7.627   2.311 -0.6089  0.2180  0.3399
  113DOPC   H5R15508   6.152   7.653   2.308  0.0492 -0.4368  6.5290
  113DOPC   H5S15509   6.026   7.518   2.307  2.1657 -0.2914  0.1200
  113DOPC   C2615510   5.981   7.678   2.445  0.0384  0.1286 -0.4622
  113DOPC   H6R15511   6.048   7.632   2.520  0.9546  2.1182  0.0181
  113DOPC   H6S15512   5.876   7.644   2.455 -0.5482  2.0005  0.2724
  113DOPC   C2715513   5.985   7.828   2.461 -0.1184  0.2218  0.4344
  113DOPC   H7R15514   5.886   7.874   2.438  0.3008  0.9197  0.0164
  113DOPC   H7S15515   6.056   7.862   2.384 -0.3229  1.4587  0.7714
  113DOPC   C2815516   6.033   7.881   2.600 -0.1145  0.5926 -0.0415
  113DOPC   H8R15517   5.998   7.809   2.677  0.5212 -1.2843 -1.4045
  113DOPC   H8S15518   5.995   7.983   2.618 -0.9216  0.5329 -1.2472
  113DOPC   C2915519   6.185   7.892   2.595  0.2856 -0.1324  0.7899
  113DOPC   H9R15520   6.224   7.922   2.497 -1.0979 -0.8530 -0.0067
  113DOPC  C21015521   6.267   7.874   2.697  0.1078  0.0506  0.6456
  113DOPC  H10R15522   6.374   7.897   2.681  0.8754 -2.6398  1.5219
  113DOPC  C21115523   6.238   7.828   2.835  0.2569  0.3206 -0.2071
  113DOPC  H11R15524   6.131   7.817   2.862  0.6426  1.0647  1.8367
  113DOPC  H11S15525   6.276   7.903   2.907  1.8878 -1.3787  0.8100
  113DOPC  C21215526   6.301   7.696   2.882  0.2932 -0.9565 -0.6723
  113DOPC  H12R15527   6.408   7.698   2.851  0.1665  0.9464 -1.1350
  113DOPC  H12S15528   6.249   7.612   2.831  1.7802 -1.5488 -1.2494
  113DOPC  C21315529   6.285   7.672   3.034  0.4262 -1.2528 -0.4577
  113DOPC  H13R15530   6.185   7.707   3.065  0.9685  0.3730 -0.4414
  113DOPC  H13S15531   6.357   7.733   3.094 -0.3286 -1.8720  1.1276
  113DOPC  C21415532   6.320   7.526   3.068 -1.1514 -0.6306 -0.5968
  113DOPC  H14R15533   6.385   7.495   2.983 -0.4604 -0.0268 -0.2996
  113DOPC  H14S15534   6.227   7.467   3.064 -1.5169 -0.2253  1.3119
  113DOPC  C21515535   6.411   7.515   3.188  0.1305  0.1679  0.7281
  113DOPC  H15R15536   6.357   7.561   3.273 -1.3785  1.2473 -0.7471
  113DOPC  H15S15537   6.507   7.571   3.180  1.0317 -1.3879  0.1129
  113DOPC  C21615538   6.442   7.371   3.229 -0.3308 -0.9675  0.9374
  113DOPC  H16R15539   6.512   7.319   3.160 -0.7930  0.1678 -0.4455
  113DOPC  H16S15540   6.342   7.323   3.239 -1.3603  0.5690 -1.1919
  113DOPC  C21715541   6.500   7.375   3.369  0.1428  0.0185 -0.2165
  113DOPC  H17R15542   6.438   7.436   3.438 -0.2363 -2.0600  1.3742
  113DOPC  H17S15543   6.595   7.434   3.370 -1.3593  2.5620  0.3766
  113DOPC  C21815544   6.522   7.241   3.436 -0.5216  0.6416  0.3472
  113DOPC  H18R15545   6.551   7.251   3.543  0.8351 -0.9357  0.1738
  113DOPC  H18S15546   6.607   7.183   3.394 -1.5040 -2.0331  1.7985
  113DOPC  H18T15547   6.426   7.185   3.424 -0.0832  0.0513 -0.5620
  113DOPC   C3315548   5.376   7.363   2.429  0.7695 -0.2282 -0.6107
  113DOPC   H3X15549   5.332   7.262   2.444  2.4578 -0.9490 -0.2850
  113DOPC   H3Y15550   5.316   7.396   2.342 -0.3698  2.9343  1.2059
  113DOPC   C3415551   5.359   7.450   2.559  0.5597 -0.5893 -0.2930
  113DOPC   H4X15552   5.375   7.557   2.532 -0.8137  0.1444  1.6010
  113DOPC   H4Y15553   5.438   7.423   2.632 -0.4708  1.6735  1.8077
  113DOPC   C3515554   5.214   7.435   2.630 -0.9890 -0.0535 -0.3640
  113DOPC   H5X15555   5.136   7.427   2.551 -2.1390 -0.5677  0.7874
  113DOPC   H5Y15556   5.199   7.522   2.697  1.2726 -0.9435  1.4127
  113DOPC   C3615557   5.214   7.312   2.721  0.4942  0.6691  0.0370
  113DOPC   H6X15558   5.110   7.277   2.742 -1.1222  4.4992 -0.7883
  113DOPC   H6Y15559   5.258   7.231   2.658  1.2283  0.2001  1.1176
  113DOPC   C3715560   5.280   7.323   2.865  0.6512 -0.2473  0.7523
  113DOPC   H7X15561   5.388   7.342   2.846  0.2714  1.0206 -0.3085
  113DOPC   H7Y15562   5.249   7.408   2.930 -2.0578 -0.3247 -0.3030
  113DOPC   C3815563   5.265   7.195   2.949  0.5402  0.3350 -0.4650
  113DOPC   H8X15564   5.350   7.209   3.019 -0.9514 -0.4095  1.5845
  113DOPC   H8Y15565   5.285   7.105   2.887  2.9191  1.1241 -0.9385
  113DOPC   C3915566   5.136   7.183   3.018  0.6805  0.8535 -1.0828
  113DOPC   H9X15567   5.046   7.173   2.954 -2.5741 -1.5392  3.3423
  113DOPC  C31015568   5.112   7.165   3.155 -0.0430 -0.0141  0.6751
  113DOPC  H10X15569   5.008   7.163   3.191 -0.4319  2.6272 -0.0605
  113DOPC  C31115570   5.225   7.153   3.258  0.7866  0.4598 -0.2093
  113DOPC  H11X15571   5.330   7.166   3.226  0.8946 -1.9130 -0.9578
  113DOPC  H11Y15572   5.213   7.059   3.316 -1.4172  0.5570 -0.4267
  113DOPC  C31215573   5.205   7.256   3.372 -0.4682 -0.3318 -0.5808
  113DOPC  H12X15574   5.209   7.358   3.327  0.2755  0.1747  0.5619
  113DOPC  H12Y15575   5.303   7.265   3.425  0.6563 -3.4787 -1.8763
  113DOPC  C31315576   5.091   7.229   3.470 -0.3572 -0.1905  0.0818
  113DOPC  H13X15577   4.995   7.253   3.419  1.1412  1.2340 -2.3021
  113DOPC  H13Y15578   5.079   7.119   3.484 -2.1464  0.0877  1.0488
  113DOPC  C31415579   5.087   7.296   3.600  0.6824 -0.4619 -0.2649
  113DOPC  H14X15580   5.100   7.405   3.582  0.2721  0.0763  2.3814
  113DOPC  H14Y15581   4.992   7.287   3.656  0.6151  3.8544  0.6826
  113DOPC  C31515582   5.198   7.247   3.693 -0.1196  0.4487 -1.0021
  113DOPC  H15X15583   5.299   7.248   3.645  0.1893  0.0046 -0.3871
  113DOPC  H15Y15584   5.172   7.141   3.715 -0.7586  0.9464  0.7858
  113DOPC  C31615585   5.221   7.316   3.835  0.2296 -0.7002 -0.1505
  113DOPC  H16X15586   5.253   7.410   3.784  0.2441 -1.3379 -1.3499
  113DOPC  H16Y15587   5.121   7.321   3.883  0.2388 -0.2397 -0.1686
  113DOPC  C31715588   5.327   7.244   3.913  0.1608  0.0371 -0.2770
  113DOPC  H17X15589   5.309   7.134   3.910 -0.2866  0.1198 -1.3024
  113DOPC  H17Y15590   5.421   7.253   3.855  0.8951  0.3137  0.9244
  113DOPC  C31815591   5.347   7.303   4.051 -0.2361  0.2080 -0.0481
  113DOPC  H18X15592   5.437   7.260   4.099 -0.3892 -1.2700 -1.0176
  113DOPC  H18Y15593   5.355   7.414   4.053  0.1662  0.1726  0.6199
  113DOPC  H18Z15594   5.264   7.287   4.123  1.9010 -0.3982  2.4214
  114DOPC     N15595   6.895   3.727   1.662  0.6048  0.3490 -1.0266
  114DOPC   C1215596   6.927   3.832   1.565  0.2415  0.7326  0.5773
  114DOPC  H12A15597   6.907   3.796   1.465 -2.6344  3.6036 -0.0420
  114DOPC  H12B15598   7.030   3.865   1.573  0.1431  2.0449 -2.4152
  114DOPC   C1315599   6.753   3.697   1.675  0.3411  0.2537 -0.6981
  114DOPC  H13A15600   6.713   3.694   1.574  1.7980  0.1541 -1.2938
  114DOPC  H13B15601   6.743   3.601   1.724  0.0439 -0.0404 -1.3219
  114DOPC  H13C15602   6.705   3.783   1.719  3.5427  1.9227 -0.1863
  114DOPC   C1415603   6.947   3.761   1.801  0.4160 -0.3794  0.3117
  114DOPC  H14A15604   6.938   3.681   1.874 -1.5661  0.7809  1.4230
  114DOPC  H14B15605   7.047   3.801   1.793  0.1696  0.0238 -0.9849
  114DOPC  H14C15606   6.887   3.844   1.834 -0.0620  0.4918 -2.5380
  114DOPC   C1515607   6.968   3.601   1.615  0.1607  0.2874  0.1883
  114DOPC  H15A15608   6.965   3.571   1.512  1.8429  2.9713 -0.7370
  114DOPC  H15B15609   6.940   3.512   1.671 -0.7689 -1.4348 -2.8066
  114DOPC  H15C15610   7.071   3.617   1.644 -0.3348 -1.5159  3.5141
  114DOPC   C1115611   6.841   3.955   1.587 -0.0567 -0.1040  0.5319
  114DOPC  H11A15612   6.870   4.039   1.522  0.9451  0.7430  2.0067
  114DOPC  H11B15613   6.733   3.940   1.565 -0.1397  0.9997  0.1454
  114DOPC     P15614   6.987   4.121   1.742 -0.0814  0.2049  0.0241
  114DOPC   O1315615   6.982   4.231   1.653  0.4542 -0.2371 -0.5789
  114DOPC   O1415616   7.111   4.039   1.743  0.1724  0.2413 -0.2039
  114DOPC   O1215617   6.867   4.020   1.713 -0.6549 -0.1681 -0.8863
  114DOPC   O1115618   6.961   4.167   1.888  0.0911  0.1697 -0.0807
  114DOPC    C115619   6.947   4.077   1.999 -0.2267 -0.1286  0.0406
  114DOPC    HA15620   7.045   4.032   2.023  0.2132  0.9340  0.3189
  114DOPC    HB15621   6.867   4.004   1.972 -1.3949  0.9771  0.3934
  114DOPC    C215622   6.919   4.138   2.145 -0.7399 -0.4588  0.5323
  114DOPC    HS15623   6.935   4.068   2.229  1.1560 -0.9036 -0.1510
  114DOPC   O2115624   6.787   4.199   2.143  0.2558 -0.0485 -0.0576
  114DOPC   C2115625   6.695   4.112   2.163  0.3353 -0.0628  0.1990
  114DOPC   O2215626   6.704   3.990   2.147  0.7341 -0.2565 -0.7637
  114DOPC   C2215627   6.557   4.173   2.203 -0.6658  0.6878  0.0067
  114DOPC   H2R15628   6.520   4.128   2.298  0.1776 -0.8541 -0.3652
  114DOPC   H2S15629   6.487   4.150   2.120  0.8062 -0.1783 -1.0323
  114DOPC    C315630   7.020   4.247   2.178  0.5838 -0.3256 -0.2545
  114DOPC    HX15631   7.000   4.321   2.097 -0.0022 -2.2026 -1.9146
  114DOPC    HY15632   7.119   4.197   2.165  0.1360 -1.8510  1.6126
  114DOPC   O3115633   6.993   4.297   2.312 -0.0795  0.4245  0.0269
  114DOPC   C3115634   7.023   4.416   2.326  0.3867  1.0243 -0.1532
  114DOPC   O3215635   7.061   4.498   2.240 -0.3455  0.4065  0.0866
  114DOPC   C3215636   7.007   4.445   2.473  0.2192  0.3626  0.0802
  114DOPC   H2X15637   7.010   4.556   2.483 -3.8494  0.6053  0.0733
  114DOPC   H2Y15638   6.905   4.407   2.494  1.4909 -3.2345  0.4881
  114DOPC   C2315639   6.552   4.330   2.224  0.5704  0.3510 -0.2986
  114DOPC   H3R15640   6.445   4.360   2.225  1.2164  2.8856  0.1250
  114DOPC   H3S15641   6.585   4.369   2.126 -0.4557  0.4112 -0.6304
  114DOPC   C2415642   6.632   4.388   2.348  0.2349 -0.2933 -0.2818
  114DOPC   H4R15643   6.722   4.333   2.382  0.6036  0.5230  0.0905
  114DOPC   H4S15644   6.568   4.382   2.439 -1.5154  0.2387 -1.4160
  114DOPC   C2515645   6.676   4.526   2.312 -0.9056  0.2867 -0.0970
  114DOPC   H5R15646   6.602   4.574   2.245  2.5762  0.2334 -4.4220
  114DOPC   H5S15647   6.776   4.514   2.266 -0.9474 -0.2200 -0.0630
  114DOPC   C2615648   6.693   4.628   2.429 -0.2646  0.4553  0.1029
  114DOPC   H6R15649   6.748   4.579   2.512 -0.4394 -0.0375 -0.0688
  114DOPC   H6S15650   6.592   4.653   2.467  0.6208 -0.1965  3.2275
  114DOPC   C2715651   6.770   4.756   2.387  0.3934  0.2282 -1.1239
  114DOPC   H7R15652   6.727   4.796   2.292 -1.5683  1.5675  0.2673
  114DOPC   H7S15653   6.873   4.730   2.354  1.0827 -3.1642  2.8727
  114DOPC   C2815654   6.768   4.858   2.504 -0.3230 -0.2044 -0.2881
  114DOPC   H8R15655   6.664   4.850   2.542  0.1337  0.9754  1.3234
  114DOPC   H8S15656   6.773   4.961   2.462 -0.4216  0.0444  0.3110
  114DOPC   C2915657   6.887   4.828   2.602  0.3049 -0.0708  0.4072
  114DOPC   H9R15658   6.987   4.821   2.557  0.7472  2.9253  0.6586
  114DOPC  C21015659   6.883   4.811   2.736  0.9619 -0.1018  0.1100
  114DOPC  H10R15660   6.976   4.792   2.790  0.2022  1.4966  2.1093
  114DOPC  C21115661   6.752   4.805   2.822  0.1440  0.2436  0.7269
  114DOPC  H11R15662   6.677   4.733   2.783 -1.1171  2.1482 -0.6060
  114DOPC  H11S15663   6.703   4.905   2.823  2.6382  1.5434  1.3002
  114DOPC  C21215664   6.793   4.769   2.964 -1.1057  0.5032 -0.2210
  114DOPC  H12R15665   6.699   4.792   3.017 -2.2113 -0.6656 -1.6072
  114DOPC  H12S15666   6.876   4.835   3.000  0.7158 -2.0289  0.4773
  114DOPC  C21315667   6.835   4.623   2.978 -0.2158 -0.1064  0.5712
  114DOPC  H13R15668   6.928   4.605   2.920  0.5435  2.2839  0.9399
  114DOPC  H13S15669   6.756   4.561   2.930 -0.8893  0.6052  0.7482
  114DOPC  C21415670   6.856   4.571   3.122  0.2962  0.1371 -0.3742
  114DOPC  H14R15671   6.889   4.465   3.119  3.3430  0.9244  0.9921
  114DOPC  H14S15672   6.761   4.592   3.174  0.7332  1.3108 -0.0145
  114DOPC  C21515673   6.971   4.639   3.199  0.3523 -0.6408 -0.6349
  114DOPC  H15R15674   6.959   4.750   3.206 -2.1331 -0.5391 -4.0045
  114DOPC  H15S15675   7.068   4.621   3.149  1.4705  4.7410 -1.0002
  114DOPC  C21615676   6.968   4.576   3.342 -0.5765  0.5074 -0.5267
  114DOPC  H16R15677   6.980   4.466   3.336 -1.3640  0.4050 -0.3281
  114DOPC  H16S15678   6.878   4.603   3.401 -0.1936  2.0696 -0.6180
  114DOPC  C21715679   7.080   4.634   3.441 -0.1166  0.0924 -0.2604
  114DOPC  H17R15680   7.056   4.743   3.439  1.0898  0.3887  0.2479
  114DOPC  H17S15681   7.180   4.613   3.397  0.5946  0.5364  1.0754
  114DOPC  C21815682   7.078   4.568   3.575 -0.3528  0.6165 -0.4253
  114DOPC  H18R15683   7.179   4.585   3.618 -0.5991  0.8950  0.0631
  114DOPC  H18S15684   7.066   4.459   3.558  0.6119  0.5456 -0.6691
  114DOPC  H18T15685   7.013   4.616   3.652  0.1495  1.2915 -0.4083
  114DOPC   C3315686   7.096   4.371   2.571 -0.7763  0.1517  0.2585
  114DOPC   H3X15687   7.200   4.408   2.558 -1.1215  0.8431 -0.6390
  114DOPC   H3Y15688   7.100   4.265   2.538 -1.6272  0.5315 -1.1023
  114DOPC   C3415689   7.053   4.394   2.712  0.8118  0.0060 -0.8802
  114DOPC   H4X15690   6.947   4.367   2.733  0.5183  0.7782 -1.3154
  114DOPC   H4Y15691   7.054   4.502   2.739  1.5784  0.1635 -1.5355
  114DOPC   C3515692   7.142   4.313   2.812  1.1495  0.4238 -0.0901
  114DOPC   H5X15693   7.248   4.320   2.780  1.7412  2.1405  2.0377
  114DOPC   H5Y15694   7.106   4.208   2.810  2.6157 -0.1000 -2.0170
  114DOPC   C3615695   7.130   4.359   2.951  0.4972 -0.4402 -0.0104
  114DOPC   H6X15696   7.023   4.354   2.981 -0.0274 -1.2483 -1.8764
  114DOPC   H6Y15697   7.177   4.457   2.971 -1.9802  0.5753  1.2411
  114DOPC   C3715698   7.203   4.267   3.052  0.8947 -0.6285  0.2436
  114DOPC   H7X15699   7.191   4.163   3.013 -2.0220 -0.0016 -0.7508
  114DOPC   H7Y15700   7.308   4.300   3.059  0.4184  1.0073 -0.0681
  114DOPC   C3815701   7.145   4.267   3.194  0.2758  0.5271 -0.6469
  114DOPC   H8X15702   7.035   4.252   3.203  0.5668 -0.3499  2.4604
  114DOPC   H8Y15703   7.156   4.371   3.229 -2.1661  0.5555  0.2305
  114DOPC   C3915704   7.223   4.173   3.290  0.8251  0.2942 -0.1168
  114DOPC   H9X15705   7.330   4.179   3.268  1.0328  4.6495  1.2084
  114DOPC  C31015706   7.168   4.081   3.384  0.4277  0.3124 -1.0469
  114DOPC  H10X15707   7.234   4.011   3.436 -2.4893 -3.0167 -1.3760
  114DOPC  C31115708   7.021   4.061   3.407  0.0526  0.4915 -0.1980
  114DOPC  H11X15709   7.007   3.951   3.411 -0.2432  0.5211 -0.3797
  114DOPC  H11Y15710   6.957   4.114   3.332 -0.5951  3.0335  1.9939
  114DOPC  C31215711   6.960   4.114   3.536 -0.3556  0.2914 -0.1429
  114DOPC  H12X15712   6.993   4.220   3.547  1.2436 -0.1467 -0.4969
  114DOPC  H12Y15713   6.975   4.049   3.625 -3.2480 -1.2645 -0.6524
  114DOPC  C31315714   6.811   4.145   3.519  0.1925 -0.4572  0.2989
  114DOPC  H13X15715   6.774   4.195   3.611  1.4509  2.6839 -0.7515
  114DOPC  H13Y15716   6.797   4.219   3.436 -2.5985  0.2443  1.2603
  114DOPC  C31415717   6.724   4.026   3.478  0.0809  0.9491  0.6598
  114DOPC  H14X15718   6.768   3.993   3.382 -0.7659  0.3873  0.4521
  114DOPC  H14Y15719   6.729   3.944   3.553 -3.2447  0.0066  0.0127
  114DOPC  C31515720   6.578   4.054   3.445 -0.0914  0.2236  0.1209
  114DOPC  H15X15721   6.564   4.140   3.376 -2.1429  1.1715  1.5992
  114DOPC  H15Y15722   6.537   4.086   3.543  2.1284  2.2216  0.4912
  114DOPC  C31615723   6.499   3.937   3.384  0.1904  0.0676 -0.2043
  114DOPC  H16X15724   6.537   3.926   3.281  0.0841  2.6088 -0.5976
  114DOPC  H16Y15725   6.523   3.848   3.446  0.2889  0.3780  0.2106
  114DOPC  C31715726   6.346   3.965   3.390  0.7333 -0.7850  0.9440
  114DOPC  H17X15727   6.288   3.953   3.484 -0.2526  1.4751  0.6978
  114DOPC  H17Y15728   6.341   4.073   3.367  2.4239 -0.1411  3.2168
  114DOPC  C31815729   6.269   3.891   3.278  0.3013 -0.2348 -0.7615
  114DOPC  H18X15730   6.315   3.903   3.177  1.1606  3.1680 -0.1109
  114DOPC  H18Y15731   6.264   3.781   3.288  0.4064 -0.1513  0.2386
  114DOPC  H18Z15732   6.169   3.933   3.258 -0.1342 -1.1385 -0.5142
  115DOPC     N15733   5.260   5.285   1.695 -0.1502 -0.2661 -0.3866
  115DOPC   C1215734   5.342   5.379   1.782  0.4690  0.1713  0.2873
  115DOPC  H12A15735   5.443   5.341   1.774  0.0333 -0.9154 -0.3236
  115DOPC  H12B15736   5.307   5.361   1.882 -0.0951 -1.1279 -0.1212
  115DOPC   C1315737   5.116   5.296   1.726  0.1684 -0.7175 -0.0109
  115DOPC  H13A15738   5.073   5.394   1.713  1.1499  0.0335  1.9334
  115DOPC  H13B15739   5.049   5.242   1.660 -1.7980  1.0328  0.4463
  115DOPC  H13C15740   5.094   5.279   1.830 -0.0742  0.8770  0.2095
  115DOPC   C1415741   5.304   5.144   1.711  0.5505 -0.1905  0.1046
  115DOPC  H14A15742   5.252   5.073   1.648  0.4867 -1.5297  1.5926
  115DOPC  H14B15743   5.410   5.131   1.695  0.6236 -0.2129  0.5911
  115DOPC  H14C15744   5.290   5.098   1.808  0.0974 -1.5940 -0.5878
  115DOPC   C1515745   5.281   5.325   1.555 -0.0217 -0.5390 -0.4270
  115DOPC  H15A15746   5.258   5.429   1.536  0.9601 -0.1612  0.3333
  115DOPC  H15B15747   5.227   5.263   1.486  0.0312 -1.9417  0.7536
  115DOPC  H15C15748   5.379   5.302   1.516  0.7751  1.8170  0.0073
  115DOPC   C1115749   5.329   5.529   1.767 -0.0344 -0.2701 -0.0947
  115DOPC  H11A15750   5.221   5.555   1.763  0.0477  0.2004  0.6485
  115DOPC  H11B15751   5.369   5.585   1.854 -0.2107 -0.3383  0.0328
  115DOPC     P15752   5.543   5.592   1.642  0.1965  0.0975  0.2819
  115DOPC   O1315753   5.578   5.736   1.640 -0.2620  0.1307 -0.0089
  115DOPC   O1415754   5.591   5.530   1.518  0.4849  0.1826 -0.0048
  115DOPC   O1215755   5.388   5.574   1.646 -0.0486 -0.4782 -0.0832
  115DOPC   O1115756   5.612   5.503   1.753  0.2882  0.1394  0.6161
  115DOPC    C115757   5.734   5.546   1.814 -0.6287  0.4411 -0.3574
  115DOPC    HA15758   5.812   5.602   1.757 -0.0230 -1.0457 -1.0590
  115DOPC    HB15759   5.794   5.460   1.851 -2.1899 -0.7307 -0.4941
  115DOPC    C215760   5.707   5.622   1.950  0.1703  0.3535 -0.0900
  115DOPC    HS15761   5.646   5.713   1.928 -0.1768  1.1482  3.5193
  115DOPC   O2115762   5.837   5.656   2.011 -0.1095  1.1702 -0.5353
  115DOPC   C2115763   5.824   5.775   2.074 -0.4933  0.3811  0.8328
  115DOPC   O2215764   5.729   5.850   2.062 -0.1235  0.3207 -0.4895
  115DOPC   C2215765   5.949   5.799   2.155 -0.2507 -0.8386  0.6199
  115DOPC   H2R15766   6.037   5.744   2.116  1.2576  0.4753  2.0739
  115DOPC   H2S15767   5.938   5.767   2.260  0.2331 -1.5952  0.4502
  115DOPC    C315768   5.637   5.532   2.051  0.8159  0.5310  0.7259
  115DOPC    HX15769   5.699   5.444   2.077 -1.6765 -0.5714  3.5061
  115DOPC    HY15770   5.545   5.492   2.004  0.9822  0.2685  0.6227
  115DOPC   O3115771   5.618   5.605   2.178  0.2456  0.1078 -0.1031
  115DOPC   C3115772   5.503   5.671   2.181 -0.1780  0.2811  0.2213
  115DOPC   O3215773   5.421   5.671   2.090 -0.2882 -0.2614  0.4043
  115DOPC   C3215774   5.509   5.761   2.299  0.2574 -0.1348 -0.1567
  115DOPC   H2X15775   5.542   5.696   2.383  0.7337  1.7922  1.2290
  115DOPC   H2Y15776   5.587   5.839   2.283 -0.3838  0.7416  0.8515
  115DOPC   C2315777   6.006   5.943   2.157  0.0576 -0.1869  0.1369
  115DOPC   H3R15778   5.936   6.010   2.212  0.0728  1.2818 -1.5541
  115DOPC   H3S15779   6.023   5.976   2.052  1.1089 -0.9006  0.0648
  115DOPC   C2415780   6.146   5.959   2.228  0.0284  0.0744  0.5873
  115DOPC   H4R15781   6.186   6.060   2.202 -0.0799  0.0444  0.2917
  115DOPC   H4S15782   6.213   5.887   2.177  1.0069  1.9692 -0.9623
  115DOPC   C2515783   6.144   5.927   2.379  0.3633 -0.1476  0.0314
  115DOPC   H5R15784   6.152   5.820   2.406  0.2521 -0.2265 -0.2449
  115DOPC   H5S15785   6.053   5.976   2.422  0.8412  0.0670  0.8251
  115DOPC   C2615786   6.265   5.996   2.459 -0.6617  0.1613  0.1874
  115DOPC   H6R15787   6.247   6.106   2.456 -2.5302 -0.1216  0.1148
  115DOPC   H6S15788   6.363   5.969   2.412  0.7828  1.6008  2.2023
  115DOPC   C2715789   6.272   5.961   2.605  0.2705  0.5767  0.4172
  115DOPC   H7R15790   6.371   5.983   2.650 -1.1751  0.9570  3.7270
  115DOPC   H7S15791   6.265   5.851   2.597 -1.3257  0.5357  1.9192
  115DOPC   C2815792   6.162   6.020   2.687 -0.2326 -0.1903 -0.1035
  115DOPC   H8R15793   6.062   5.984   2.654  0.8009  0.2629 -4.3005
  115DOPC   H8S15794   6.157   6.131   2.679 -2.0656 -0.1978  0.4866
  115DOPC   C2915795   6.182   5.984   2.830 -0.4093  0.2363 -0.3578
  115DOPC   H9R15796   6.156   5.879   2.848  1.5013 -0.6729 -2.4371
  115DOPC  C21015797   6.223   6.062   2.932  0.3666 -0.5760 -0.1220
  115DOPC  H10R15798   6.230   6.016   3.032  2.2795 -2.7366 -1.1663
  115DOPC  C21115799   6.246   6.206   2.930  0.5595 -0.5382 -0.6835
  115DOPC  H11R15800   6.193   6.265   2.852 -0.4598  0.0604  0.4270
  115DOPC  H11S15801   6.355   6.223   2.912  0.2122  0.9568 -1.5810
  115DOPC  C21215802   6.197   6.259   3.066  0.4460  0.8427  0.0370
  115DOPC  H12R15803   6.256   6.213   3.148 -0.3282 -0.1957  0.0304
  115DOPC  H12S15804   6.091   6.230   3.080  0.1832  1.8022  0.1105
  115DOPC  C21315805   6.218   6.414   3.067 -0.7530  0.4957  0.1378
  115DOPC  H13R15806   6.197   6.449   3.170 -0.4880 -0.0654  0.3822
  115DOPC  H13S15807   6.150   6.464   2.995  2.3514  2.9250 -1.3849
  115DOPC  C21415808   6.359   6.455   3.043 -0.4903  0.8161  0.5957
  115DOPC  H14R15809   6.378   6.475   2.935  0.7888  0.9191  0.8231
  115DOPC  H14S15810   6.439   6.385   3.076  1.9426  0.8625 -4.2477
  115DOPC  C21515811   6.377   6.595   3.099  0.4267  1.1114 -0.3125
  115DOPC  H15R15812   6.284   6.653   3.113  1.3483  2.8735 -1.2473
  115DOPC  H15S15813   6.440   6.663   3.037  1.4105  2.2082  1.7930
  115DOPC  C21615814   6.447   6.581   3.233  0.1389 -0.5948 -0.9620
  115DOPC  H16R15815   6.551   6.620   3.229  0.4934 -0.9223  2.2499
  115DOPC  H16S15816   6.459   6.472   3.252  0.0393 -0.8370 -2.2004
  115DOPC  C21715817   6.367   6.640   3.356 -0.0981 -0.5958  0.4287
  115DOPC  H17R15818   6.259   6.616   3.339 -0.3054  1.0122 -0.7449
  115DOPC  H17S15819   6.374   6.751   3.351  0.1707 -0.5846  0.9926
  115DOPC  C21815820   6.430   6.588   3.491 -0.2815 -0.7758 -0.9276
  115DOPC  H18R15821   6.390   6.631   3.585  0.2399  0.4353 -1.2342
  115DOPC  H18S15822   6.442   6.478   3.480  2.3677 -0.4945 -1.5088
  115DOPC  H18T15823   6.530   6.636   3.493 -1.0113  0.8135  1.1257
  115DOPC   C3315824   5.365   5.820   2.319  0.1830 -0.0898 -0.4809
  115DOPC   H3X15825   5.294   5.737   2.337  0.8736 -0.8133 -1.0224
  115DOPC   H3Y15826   5.340   5.890   2.236  1.3887  0.3611 -0.4910
  115DOPC   C3415827   5.351   5.896   2.453 -0.3387 -0.5307 -0.2976
  115DOPC   H4X15828   5.247   5.934   2.456 -0.3480 -0.5574 -0.2803
  115DOPC   H4Y15829   5.423   5.981   2.460  0.0483 -0.7461 -1.4246
  115DOPC   C3515830   5.367   5.811   2.578 -0.4607 -0.6462  0.3162
  115DOPC   H5X15831   5.473   5.794   2.608 -0.2700  0.8553  0.5658
  115DOPC   H5Y15832   5.315   5.716   2.552 -0.4594 -0.7522  0.6981
  115DOPC   C3615833   5.289   5.871   2.696 -0.8203  0.6448 -0.1277
  115DOPC   H6X15834   5.296   5.982   2.696 -1.1650  0.6856  1.3133
  115DOPC   H6Y15835   5.183   5.844   2.677 -0.8958 -1.5066  2.7729
  115DOPC   C3715836   5.332   5.814   2.826  0.0962  0.2499 -0.2245
  115DOPC   H7X15837   5.250   5.821   2.900  0.3757 -1.0210  0.2289
  115DOPC   H7Y15838   5.358   5.707   2.818  1.4339  0.4131  1.3599
  115DOPC   C3815839   5.452   5.896   2.888  0.3747  0.3323  1.0794
  115DOPC   H8X15840   5.392   5.982   2.923 -2.9673 -0.7943 -1.3621
  115DOPC   H8Y15841   5.516   5.932   2.804 -0.1879 -0.1034  0.4471
  115DOPC   C3915842   5.531   5.820   2.990  0.5473  0.7984  0.2502
  115DOPC   H9X15843   5.569   5.727   2.944 -0.2201  2.3817 -4.0891
  115DOPC  C31015844   5.524   5.854   3.123 -0.4330 -0.0556  0.0310
  115DOPC  H10X15845   5.598   5.791   3.175  0.8486 -0.6869 -2.4114
  115DOPC  C31115846   5.444   5.967   3.187  0.8762 -0.0627 -0.0379
  115DOPC  H11X15847   5.352   5.918   3.225  1.0594  0.1007  0.6292
  115DOPC  H11Y15848   5.399   6.042   3.120 -0.6237 -0.8629  0.0415
  115DOPC  C31215849   5.526   6.023   3.305 -0.1089 -0.2204 -0.1946
  115DOPC  H12X15850   5.619   6.073   3.269 -0.1542  0.9709  1.2406
  115DOPC  H12Y15851   5.555   5.931   3.360 -2.3184 -0.8345  0.0205
  115DOPC  C31315852   5.465   6.124   3.403  0.1011  0.0515  0.6499
  115DOPC  H13X15853   5.424   6.219   3.361  0.1548 -0.2806 -0.1692
  115DOPC  H13Y15854   5.391   6.080   3.472  1.5231  2.2032  3.8075
  115DOPC  C31415855   5.576   6.176   3.504 -0.4299  0.1402 -0.2125
  115DOPC  H14X15856   5.664   6.208   3.444 -0.5447  0.0767 -0.4173
  115DOPC  H14Y15857   5.529   6.266   3.549  0.8697  0.7942 -0.1300
  115DOPC  C31515858   5.611   6.068   3.605 -0.4302  0.5019  0.0042
  115DOPC  H15X15859   5.678   5.991   3.559 -0.1293  0.4069  0.5972
  115DOPC  H15Y15860   5.530   6.004   3.645 -0.5045  1.0852  0.8056
  115DOPC  C31615861   5.681   6.110   3.731  0.3166 -0.2860  0.0365
  115DOPC  H16X15862   5.779   6.152   3.702 -0.4747  0.3874 -1.8110
  115DOPC  H16Y15863   5.620   6.173   3.800  0.6806 -0.2305  0.3073
  115DOPC  C31715864   5.730   6.000   3.818 -0.2913 -0.2233 -0.2509
  115DOPC  H17X15865   5.671   5.909   3.796 -2.2145  1.2185 -1.3670
  115DOPC  H17Y15866   5.837   5.978   3.794  0.2177  1.9031 -0.1197
  115DOPC  C31815867   5.728   6.050   3.969 -0.1646 -0.1455 -0.1245
  115DOPC  H18X15868   5.624   6.052   4.008 -0.2120 -3.3859  0.2078
  115DOPC  H18Y15869   5.775   5.985   4.046 -1.4541 -1.4801 -0.4209
  115DOPC  H18Z15870   5.773   6.151   3.976 -1.4307  0.3788  1.0930
  116DOPC     N15871   6.908   5.580   1.407  0.1055  0.1628  0.0311
  116DOPC   C1215872   6.845   5.699   1.464  0.0490  0.0756  0.0372
  116DOPC  H12A15873   6.741   5.699   1.433 -0.6208 -3.2986  1.7480
  116DOPC  H12B15874   6.898   5.785   1.426 -0.7680  1.0568  1.0480
  116DOPC   C1315875   6.842   5.458   1.466 -0.3693 -0.5087  0.5837
  116DOPC  H13A15876   6.734   5.461   1.458 -0.4819  1.5878  1.9730
  116DOPC  H13B15877   6.888   5.377   1.412  3.1436 -0.7341  3.5959
  116DOPC  H13C15878   6.856   5.430   1.569 -2.4508  1.9351  1.6552
  116DOPC   C1415879   7.057   5.569   1.428  0.4518  0.2700  0.0973
  116DOPC  H14A15880   7.095   5.473   1.397  0.8011  0.3537  0.2673
  116DOPC  H14B15881   7.111   5.638   1.367 -0.1296  0.6499  0.0023
  116DOPC  H14C15882   7.076   5.588   1.533 -2.7031  3.2541  0.3157
  116DOPC   C1515883   6.879   5.575   1.259  0.2968 -0.2833  0.1605
  116DOPC  H15A15884   6.784   5.527   1.241 -0.0354  0.3058  0.2909
  116DOPC  H15B15885   6.950   5.514   1.205 -0.5606 -1.2358  0.0804
  116DOPC  H15C15886   6.879   5.676   1.221 -1.2355  0.3259  1.6182
  116DOPC   C1115887   6.845   5.714   1.617 -0.0248 -0.3385 -0.0959
  116DOPC  H11A15888   6.813   5.819   1.632 -1.4180 -1.0109  2.0156
  116DOPC  H11B15889   6.765   5.650   1.659 -2.1977  2.5937  0.5721
  116DOPC     P15890   6.990   5.637   1.807 -0.0427  0.4741  0.7240
  116DOPC   O1315891   7.120   5.687   1.851 -0.1532  0.3744  0.0509
  116DOPC   O1415892   6.978   5.489   1.788  0.1425 -0.9324 -0.1492
  116DOPC   O1215893   6.973   5.704   1.669 -0.6439  0.3346 -0.5838
  116DOPC   O1115894   6.872   5.703   1.888  0.1654  0.3048  0.0868
  116DOPC    C115895   6.884   5.816   1.973  0.2860  0.1227  0.1987
  116DOPC    HA15896   6.801   5.888   1.953 -0.2597 -0.5704 -0.0756
  116DOPC    HB15897   6.978   5.873   1.957 -0.9260  1.5215 -2.6877
  116DOPC    C215898   6.880   5.786   2.125  0.0181 -0.0828  0.0852
  116DOPC    HS15899   6.777   5.749   2.147  0.7186 -2.2674 -0.0515
  116DOPC   O2115900   6.904   5.905   2.200 -0.4383  0.0383  0.1504
  116DOPC   C2115901   6.798   5.983   2.217  0.7078 -0.7192  0.0106
  116DOPC   O2215902   6.687   5.964   2.166  0.3008 -0.3224  0.0704
  116DOPC   C2215903   6.830   6.095   2.312 -0.3153  0.7408  0.1866
  116DOPC   H2R15904   6.880   6.157   2.235 -0.7314 -0.5135 -1.1412
  116DOPC   H2S15905   6.905   6.072   2.390 -1.7665 -1.3126  1.0591
  116DOPC    C315906   6.979   5.674   2.163 -0.0741 -0.3400 -0.8009
  116DOPC    HX15907   7.079   5.712   2.132  0.6607  0.2426  2.0088
  116DOPC    HY15908   6.964   5.578   2.109  0.1354 -1.3502  0.8791
  116DOPC   O3115909   6.972   5.652   2.307 -0.9944 -0.1877 -0.3899
  116DOPC   C3115910   7.089   5.638   2.372  0.3039 -0.8362  0.4387
  116DOPC   O3215911   7.198   5.645   2.316 -0.5644  0.1953  0.1923
  116DOPC   C3215912   7.062   5.615   2.522 -0.6334 -0.4841 -0.0080
  116DOPC   H2X15913   7.052   5.505   2.534  0.7848 -0.4450  2.0924
  116DOPC   H2Y15914   7.155   5.631   2.581  1.3712 -1.9418 -2.5930
  116DOPC   C2315915   6.701   6.172   2.368 -0.1577 -0.2687 -0.0996
  116DOPC   H3R15916   6.626   6.199   2.291 -2.9221 -1.3309  2.0471
  116DOPC   H3S15917   6.744   6.268   2.405 -1.2854 -0.0608  0.7497
  116DOPC   C2415918   6.648   6.108   2.495 -0.1472 -0.0243 -0.6177
  116DOPC   H4R15919   6.740   6.085   2.554 -0.7918 -0.3126  0.2969
  116DOPC   H4S15920   6.594   6.017   2.464 -2.8638  1.0513  0.6453
  116DOPC   C2515921   6.555   6.193   2.572 -0.1325  0.5427 -0.3647
  116DOPC   H5R15922   6.524   6.138   2.664  4.0543  0.1628  1.0551
  116DOPC   H5S15923   6.469   6.217   2.506  0.0098  0.3241 -0.6321
  116DOPC   C2615924   6.616   6.319   2.630 -0.5242 -0.0142  0.3384
  116DOPC   H6R15925   6.656   6.385   2.550  3.5230 -0.5376  1.6611
  116DOPC   H6S15926   6.704   6.287   2.690 -0.2278 -0.1819 -0.1759
  116DOPC   C2715927   6.519   6.396   2.713  0.1554 -0.1940 -0.6191
  116DOPC   H7R15928   6.512   6.349   2.813  0.0922 -0.0976 -0.5788
  116DOPC   H7S15929   6.413   6.376   2.686  0.2763  0.0066 -1.2743
  116DOPC   C2815930   6.556   6.545   2.729 -0.4136  0.1321 -0.1430
  116DOPC   H8R15931   6.664   6.557   2.752 -0.3171  2.0846 -1.4191
  116DOPC   H8S15932   6.490   6.588   2.807  1.2167  2.3178  0.1469
  116DOPC   C2915933   6.522   6.605   2.596 -0.1169  0.4957  0.1850
  116DOPC   H9R15934   6.581   6.580   2.507  1.0283  3.4826 -0.0163
  116DOPC  C21015935   6.419   6.690   2.579 -0.2859 -0.6591  0.5179
  116DOPC  H10R15936   6.403   6.729   2.477  2.0657  0.2675  0.4346
  116DOPC  C21115937   6.318   6.739   2.680 -0.4039 -0.2367 -1.0423
  116DOPC  H11R15938   6.275   6.838   2.651 -1.5303  0.0325  1.3526
  116DOPC  H11S15939   6.367   6.760   2.777 -0.5677 -0.7837 -0.8370
  116DOPC  C21215940   6.202   6.649   2.708 -0.5553 -0.2643  0.5679
  116DOPC  H12R15941   6.235   6.563   2.769 -1.6652 -1.2076 -0.1136
  116DOPC  H12S15942   6.172   6.601   2.612 -1.7120  2.2954 -0.4329
  116DOPC  C21315943   6.074   6.715   2.759 -0.1357 -0.3148 -0.3568
  116DOPC  H13R15944   6.052   6.804   2.696 -2.1018 -0.4921  0.0092
  116DOPC  H13S15945   6.093   6.759   2.860  0.7755 -0.1176 -0.6055
  116DOPC  C21415946   5.956   6.620   2.774 -0.2320  0.9602 -0.0100
  116DOPC  H14R15947   5.956   6.550   2.860 -0.5322  1.0037  0.0258
  116DOPC  H14S15948   5.935   6.563   2.681 -0.9072 -0.5225  1.0145
  116DOPC  C21515949   5.823   6.689   2.802 -0.5343 -0.3263 -0.3529
  116DOPC  H15R15950   5.810   6.739   2.703  0.4650  3.2637  1.1428
  116DOPC  H15S15951   5.830   6.765   2.883 -0.7858  1.5471 -2.0120
  116DOPC  C21615952   5.712   6.593   2.827  0.0839  0.0563 -0.2094
  116DOPC  H16R15953   5.730   6.546   2.927  0.2132  0.4624 -0.0362
  116DOPC  H16S15954   5.711   6.517   2.747 -0.6265 -0.1596  0.0033
  116DOPC  C21715955   5.572   6.661   2.811 -0.0824  0.1833 -0.1554
  116DOPC  H17R15956   5.577   6.723   2.719 -0.3782  0.5045  0.0435
  116DOPC  H17S15957   5.558   6.736   2.892 -3.7990 -0.5938  0.0671
  116DOPC  C21815958   5.455   6.567   2.801 -0.2204 -0.3024  0.0485
  116DOPC  H18R15959   5.373   6.626   2.754  0.1725  1.3130  1.2931
  116DOPC  H18S15960   5.415   6.518   2.892  1.4439  0.5343  1.2916
  116DOPC  H18T15961   5.467   6.481   2.732 -1.3896  0.7899 -1.5830
  116DOPC   C3315962   6.933   5.666   2.579  0.5187 -0.9212 -0.4292
  116DOPC   H3X15963   6.885   5.591   2.645 -1.2722 -0.4202 -1.1172
  116DOPC   H3Y15964   6.864   5.692   2.496 -1.7601  2.2781  2.2429
  116DOPC   C3415965   6.939   5.803   2.656  0.4098  1.4982  0.4585
  116DOPC   H4X15966   6.978   5.881   2.587 -0.1787  2.5595  1.3077
  116DOPC   H4Y15967   7.025   5.785   2.724 -0.0344 -1.5079  0.3770
  116DOPC   C3515968   6.809   5.839   2.722 -0.0896  0.1055 -0.7801
  116DOPC   H5X15969   6.777   5.752   2.783  1.1351 -0.2120 -0.5762
  116DOPC   H5Y15970   6.740   5.858   2.636 -1.2854 -0.4513  0.0252
  116DOPC   C3615971   6.832   5.949   2.824  0.2781 -0.2730  0.7187
  116DOPC   H6X15972   6.899   5.901   2.899 -0.2588 -1.3573  0.5188
  116DOPC   H6Y15973   6.888   6.034   2.778 -1.1395  1.8681  2.6941
  116DOPC   C3715974   6.710   6.001   2.897 -0.0931 -0.3923 -0.0478
  116DOPC   H7X15975   6.733   6.108   2.911  2.3081 -0.7562 -0.7494
  116DOPC   H7Y15976   6.616   5.974   2.843 -0.1451  0.0593 -0.1855
  116DOPC   C3815977   6.698   5.936   3.039 -0.5934  0.9724  0.2329
  116DOPC   H8X15978   6.791   5.964   3.092 -0.3287 -1.9692  1.5176
  116DOPC   H8Y15979   6.689   5.826   3.024  0.3578  0.9791 -0.4857
  116DOPC   C3915980   6.566   5.979   3.094  0.1399 -0.3305  0.2205
  116DOPC   H9X15981   6.475   5.950   3.039  0.4389 -0.1820 -0.3639
  116DOPC  C31015982   6.551   6.078   3.186  0.4613  0.2804 -0.0585
  116DOPC  H10X15983   6.450   6.108   3.217  0.6261 -0.5005  1.3508
  116DOPC  C31115984   6.661   6.160   3.251 -0.7022 -0.6008  0.3224
  116DOPC  H11X15985   6.628   6.266   3.253 -0.2136 -0.4462  0.1884
  116DOPC  H11Y15986   6.754   6.154   3.191 -1.4166  2.0912 -1.2165
  116DOPC  C31215987   6.687   6.116   3.395  0.1549 -0.4897  0.9026
  116DOPC  H12X15988   6.738   6.018   3.394  0.1735 -0.4767  0.5675
  116DOPC  H12Y15989   6.591   6.093   3.447 -0.4506 -1.9691 -0.7559
  116DOPC  C31315990   6.777   6.210   3.473 -0.3257 -0.1331  0.0638
  116DOPC  H13X15991   6.844   6.156   3.543 -0.5754  0.6220  0.8976
  116DOPC  H13Y15992   6.837   6.270   3.402 -1.8934  1.8949  0.3593
  116DOPC  C31415993   6.692   6.311   3.554  0.5323  0.4123 -0.0862
  116DOPC  H14X15994   6.630   6.368   3.482 -1.1446 -1.1911  0.0506
  116DOPC  H14Y15995   6.615   6.250   3.605  2.4886 -1.3399  0.9425
  116DOPC  C31515996   6.763   6.390   3.664  0.6015  0.3501  0.4041
  116DOPC  H15X15997   6.803   6.317   3.737  0.8955 -1.0245 -1.0754
  116DOPC  H15Y15998   6.686   6.461   3.703  0.1333 -1.0002  2.0803
  116DOPC  C31615999   6.878   6.480   3.615  0.3997  0.0598 -0.2615
  116DOPC  H16X16000   6.957   6.414   3.574  1.6003 -0.3965  2.5675
  116DOPC  H16Y16001   6.851   6.551   3.533 -1.0596  2.0250  1.8079
  116DOPC  C31716002   6.943   6.561   3.732  0.5992  0.0601 -0.3533
  116DOPC  H17X16003   7.028   6.619   3.691  2.3459 -0.8822  1.7611
  116DOPC  H17Y16004   6.855   6.623   3.763 -0.6092 -2.2970  1.2095
  116DOPC  C31816005   6.990   6.471   3.848 -0.0843  0.3302 -0.1563
  116DOPC  H18X16006   7.033   6.536   3.927 -1.6764  1.1615  0.0662
  116DOPC  H18Y16007   6.904   6.425   3.903  0.8478 -0.3809  0.7407
  116DOPC  H18Z16008   7.062   6.393   3.816 -0.2303  0.5026 -0.9151
  117DOPC     N16009   7.872   2.581   1.975 -0.5229 -0.0624 -0.1287
  117DOPC   C1216010   7.962   2.564   1.860 -0.4405 -0.2822  0.8647
  117DOPC  H12A16011   7.948   2.649   1.796 -0.4950 -0.1260  1.0818
  117DOPC  H12B16012   7.939   2.485   1.790 -0.3904  0.2593  0.2279
  117DOPC   C1316013   7.733   2.523   1.950  0.0321 -0.0493  0.7748
  117DOPC  H13A16014   7.738   2.415   1.960 -0.4841 -0.1528 -0.0631
  117DOPC  H13B16015   7.655   2.551   2.019 -1.6100  0.3924 -1.1971
  117DOPC  H13C16016   7.691   2.555   1.856 -1.6483  0.5824  1.7052
  117DOPC   C1416017   7.851   2.730   1.995 -0.4186 -0.5609  0.6389
  117DOPC  H14A16018   7.799   2.777   1.913  1.0907 -2.3759 -1.4791
  117DOPC  H14B16019   7.799   2.761   2.084  0.5036  2.6267  0.1987
  117DOPC  H14C16020   7.947   2.780   2.002 -0.4185 -0.3306 -0.7556
  117DOPC   C1516021   7.930   2.512   2.098 -0.0259 -0.1809 -0.0305
  117DOPC  H15A16022   7.921   2.406   2.077  1.1512 -0.1445 -0.8558
  117DOPC  H15B16023   7.858   2.542   2.172 -2.8216 -0.1571 -2.5540
  117DOPC  H15C16024   8.034   2.535   2.113  0.4567 -0.7237 -2.1370
  117DOPC   C1116025   8.115   2.551   1.894 -0.0020 -0.5615  0.5772
  117DOPC  H11A16026   8.135   2.459   1.952  0.2953  0.3344  1.9326
  117DOPC  H11B16027   8.164   2.548   1.794  2.4692 -0.2441  1.6925
  117DOPC     P16028   8.216   2.782   1.915  0.5268 -0.0275 -0.4832
  117DOPC   O1316029   8.118   2.864   1.848  0.4456 -0.6309  0.2708
  117DOPC   O1416030   8.335   2.741   1.842 -0.4043 -0.6743  0.7673
  117DOPC   O1216031   8.168   2.655   1.979  0.0968  0.4346  0.5953
  117DOPC   O1116032   8.276   2.865   2.040  0.1934 -0.6296  0.7650
  117DOPC    C116033   8.337   2.790   2.140  0.5438 -0.2237 -0.2096
  117DOPC    HA16034   8.405   2.711   2.100  1.0146  0.2605 -0.3800
  117DOPC    HB16035   8.258   2.739   2.199 -0.1868 -0.8484 -1.6873
  117DOPC    C216036   8.417   2.891   2.235  0.0474 -0.4147  1.1994
  117DOPC    HS16037   8.497   2.835   2.290  0.9190  0.9577  1.3602
  117DOPC   O2116038   8.325   2.956   2.322  0.2909  0.4243  0.0786
  117DOPC   C2116039   8.281   2.885   2.425 -0.2013 -0.0893  0.1019
  117DOPC   O2216040   8.315   2.771   2.446  0.0484  0.1133 -0.3610
  117DOPC   C2216041   8.197   2.973   2.521  0.8480 -0.5261  0.5669
  117DOPC   H2R16042   8.169   2.920   2.614  1.7330 -0.9211  0.6225
  117DOPC   H2S16043   8.103   3.017   2.482 -0.2056 -2.0958  1.2690
  117DOPC    C316044   8.495   2.994   2.149 -0.3842  0.6193  0.0383
  117DOPC    HX16045   8.415   3.062   2.112 -1.4466  0.1734  1.4031
  117DOPC    HY16046   0.011   2.941   2.065  0.3618  1.0694  0.2031
  117DOPC   O3116047   0.045   3.059   2.237 -0.4782 -0.0075  0.1730
  117DOPC   C3116048   0.142   3.123   2.179 -0.2475  0.5093  0.7923
  117DOPC   O3216049   0.162   3.123   2.056 -0.0552  0.2655  0.1433
  117DOPC   C3216050   0.225   3.200   2.278  0.1152 -0.6436 -0.1775
  117DOPC   H2X16051   0.295   3.266   2.223 -0.2648  0.1341  0.2659
  117DOPC   H2Y16052   0.159   3.271   2.332  1.3293  0.0884  0.3821
  117DOPC   C2316053   8.284   3.095   2.563 -0.0486  0.6656 -0.0865
  117DOPC   H3R16054   8.225   3.153   2.637  0.7670  2.1668 -0.5580
  117DOPC   H3S16055   8.300   3.164   2.477 -0.2884 -0.6412 -1.2167
  117DOPC   C2416056   8.414   3.052   2.637 -0.2685 -0.3408  0.3278
  117DOPC   H4R16057   8.451   2.963   2.581  0.4719 -0.5557  1.1319
  117DOPC   H4S16058   8.386   3.010   2.736 -0.4056 -2.8195 -0.6811
  117DOPC   C2516059   8.522   3.162   2.637  0.5549 -0.1740  0.5984
  117DOPC   H5R16060   8.500   3.240   2.713  1.5696 -1.1387  1.9430
  117DOPC   H5S16061   0.017   3.218   2.546  1.3410  0.7924  1.4292
  117DOPC   C2616062   0.119   3.107   2.691 -0.1592 -0.1179 -0.2106
  117DOPC   H6R16063   0.195   3.187   2.675  0.0549  0.2038  2.0463
  117DOPC   H6S16064   0.144   3.018   2.629  1.3729 -1.5149  2.2140
  117DOPC   C2716065   0.106   3.064   2.840 -0.4479 -0.3347  0.2539
  117DOPC   H7R16066   0.074   2.958   2.833 -1.3916 -0.0466  0.0593
  117DOPC   H7S16067   0.032   3.127   2.893  1.0628  1.2878  0.5528
  117DOPC   C2816068   0.242   3.080   2.903 -0.3056  0.8155 -0.7517
  117DOPC   H8R16069   0.307   3.023   2.833 -0.6677 -2.2945  1.2223
  117DOPC   H8S16070   0.235   3.023   2.998  0.1371  0.4271 -0.9479
  117DOPC   C2916071   0.273   3.222   2.927  1.0855 -0.8901  0.2051
  117DOPC   H9R16072   0.322   3.271   2.842 -0.2179 -0.8722 -0.5660
  117DOPC  C21016073   0.241   3.296   3.035 -0.0874 -0.4224 -0.8662
  117DOPC  H10R16074   0.245   3.405   3.026  0.4590 -0.3133  0.5041
  117DOPC  C21116075   0.174   3.244   3.166  0.4878 -0.2162  1.1860
  117DOPC  H11R16076   0.112   3.155   3.143 -0.9339  1.3424 -1.3694
  117DOPC  H11S16077   0.109   3.319   3.214 -2.4675 -1.5983 -0.4125
  117DOPC  C21216078   0.281   3.211   3.272  0.2456  0.0504 -0.4061
  117DOPC  H12R16079   0.344   3.134   3.222  1.5680 -0.1899  1.5044
  117DOPC  H12S16080   0.236   3.158   3.359  0.4293  2.6381  1.3891
  117DOPC  C21316081   0.362   3.329   3.323  0.4149  0.8878 -0.3587
  117DOPC  H13R16082   0.302   3.417   3.354  1.2314  1.8041 -1.3264
  117DOPC  H13S16083   0.419   3.364   3.235  1.3127  2.1546  0.6953
  117DOPC  C21416084   0.462   3.281   3.427 -0.0879 -0.0149  0.1258
  117DOPC  H14R16085   0.516   3.191   3.391 -0.5670 -0.5938  0.8273
  117DOPC  H14S16086   0.391   3.252   3.507  0.6880  0.6278  1.0782
  117DOPC  C21516087   0.562   3.383   3.470 -0.3200  0.2483 -0.4584
  117DOPC  H15R16088   0.513   3.471   3.517 -2.9555 -1.8948  1.0921
  117DOPC  H15S16089   0.622   3.417   3.383  0.0626 -0.6039 -0.5470
  117DOPC  C21616090   0.654   3.325   3.577  0.1813 -0.3256  0.4161
  117DOPC  H16R16091   0.721   3.244   3.542 -2.7743 -1.8824 -2.1137
  117DOPC  H16S16092   0.590   3.288   3.660 -1.3856 -0.5764 -0.8531
  117DOPC  C21716093   0.746   3.436   3.634  0.3269 -0.0309 -0.3447
  117DOPC  H17R16094   0.694   3.524   3.678 -1.2030 -0.2486 -1.6275
  117DOPC  H17S16095   0.795   3.485   3.547  0.9146 -1.4042 -0.8099
  117DOPC  C21816096   0.846   3.374   3.728  0.0325 -0.2321  0.8929
  117DOPC  H18R16097   0.908   3.451   3.778 -0.2145  0.7433 -0.2533
  117DOPC  H18S16098   0.908   3.310   3.661 -2.0163 -1.5493  0.1400
  117DOPC  H18T16099   0.807   3.306   3.807  1.5549 -1.3438  0.7244
  117DOPC   C3316100   0.283   3.100   2.376  0.3302 -0.6730  0.7466
  117DOPC   H3X16101   0.197   3.041   2.415  1.3713 -3.3201 -0.7029
  117DOPC   H3Y16102   0.331   3.152   2.461 -1.8296  0.9606  1.0547
  117DOPC   C3416103   0.388   3.010   2.311 -0.0165  0.5302 -0.6161
  117DOPC   H4X16104   0.338   2.944   2.237  0.8308 -0.3774 -0.3940
  117DOPC   H4Y16105   0.427   2.949   2.395  0.3808 -1.4227 -2.1464
  117DOPC   C3516106   0.504   3.074   2.234  0.3031 -0.2093 -0.3596
  117DOPC   H5X16107   0.554   3.129   2.316 -2.5427 -0.9212  2.0232
  117DOPC   H5Y16108   0.482   3.152   2.158  1.7786  0.4412 -0.1490
  117DOPC   C3616109   0.595   2.963   2.188 -0.1382  0.2096  0.3796
  117DOPC   H6X16110   0.641   2.902   2.269  1.2974  1.7198  0.7511
  117DOPC   H6Y16111   0.535   2.900   2.119  1.2789  1.3682 -2.0399
  117DOPC   C3716112   0.700   3.013   2.094 -0.0783 -0.0523  0.3432
  117DOPC   H7X16113   0.759   2.926   2.057 -0.5539 -0.9550  1.6406
  117DOPC   H7Y16114   0.646   3.057   2.008 -0.4746  1.7503  1.4613
  117DOPC   C3816115   0.796   3.120   2.162  0.6501 -0.0249  0.4662
  117DOPC   H8X16116   0.808   3.087   2.267 -0.7257 -1.8893  0.0766
  117DOPC   H8Y16117   0.726   3.206   2.161 -1.5072 -1.6476 -2.1200
  117DOPC   C3916118   0.922   3.170   2.098  0.2377  0.2831  0.7169
  117DOPC   H9X16119   0.908   3.202   1.994 -1.2360 -1.7595  0.2398
  117DOPC  C31016120   1.041   3.162   2.154 -0.2852  0.0980  0.7871
  117DOPC  H10X16121   1.130   3.186   2.094 -0.8750 -1.3626 -0.7311
  117DOPC  C31116122   1.065   3.100   2.292 -0.1986 -0.1647 -0.2076
  117DOPC  H11X16123   1.162   3.047   2.278 -0.0480  0.4988 -1.9022
  117DOPC  H11Y16124   0.995   3.025   2.334  1.4908 -1.3874  0.5542
  117DOPC  C31216125   1.086   3.205   2.405 -0.7137 -0.0248  0.3599
  117DOPC  H12X16126   0.985   3.229   2.445 -1.1235 -2.6304  1.0494
  117DOPC  H12Y16127   1.151   3.290   2.378 -0.7688 -0.3738 -0.9287
  117DOPC  C31316128   1.160   3.150   2.535 -0.0409  0.3983 -0.6764
  117DOPC  H13X16129   1.117   3.051   2.562  0.3910  0.2788 -0.4188
  117DOPC  H13Y16130   1.269   3.135   2.523 -0.2291 -0.1869 -1.8120
  117DOPC  C31416131   1.134   3.245   2.651 -0.2156  0.6754 -0.0070
  117DOPC  H14X16132   1.168   3.339   2.602  3.3670 -1.5580 -2.2788
  117DOPC  H14Y16133   1.027   3.255   2.680 -0.2037  0.0600  0.2634
  117DOPC  C31516134   1.223   3.217   2.770 -0.1590  0.3724  0.6783
  117DOPC  H15X16135   1.223   3.306   2.837  0.6978  1.6852 -0.9910
  117DOPC  H15Y16136   1.328   3.197   2.743 -0.9378 -0.2470 -2.1967
  117DOPC  C31616137   1.174   3.095   2.853 -0.5241  0.3640 -0.9100
  117DOPC  H16X16138   1.095   3.132   2.921 -0.1684  0.7568 -0.7056
  117DOPC  H16Y16139   1.129   3.021   2.783 -1.6591 -1.1045  1.2522
  117DOPC  C31716140   1.298   3.033   2.933  0.1158  0.4101 -0.8270
  117DOPC  H17X16141   1.262   2.935   2.971  0.8063  1.5558  3.3092
  117DOPC  H17Y16142   1.388   3.029   2.867  1.1237  0.1609  0.5088
  117DOPC  C31816143   1.341   3.115   3.059  0.3679  0.3965  0.5854
  117DOPC  H18X16144   1.247   3.142   3.113 -0.9859 -1.9959 -0.4390
  117DOPC  H18Y16145   1.402   3.058   3.132  2.2303  0.8323 -0.5776
  117DOPC  H18Z16146   1.398   3.207   3.034  0.2340  0.1245 -0.8022
  118DOPC     N16147   2.414   7.231   1.093 -0.5997 -0.0317 -0.6835
  118DOPC   C1216148   2.533   7.140   1.060  0.4633  0.0496 -0.3180
  118DOPC  H12A16149   2.504   7.083   0.972  0.9064 -1.5231  0.5207
  118DOPC  H12B16150   2.553   7.071   1.140  0.5261 -0.1880 -0.5354
  118DOPC   C1316151   2.463   7.355   1.166  0.3708  0.3420  0.3522
  118DOPC  H13A16152   2.386   7.393   1.232  0.6774 -0.1699  1.0091
  118DOPC  H13B16153   2.549   7.338   1.228  1.6014 -0.4732 -1.5021
  118DOPC  H13C16154   2.487   7.439   1.102  0.4893  1.4474  1.8059
  118DOPC   C1416155   2.312   7.173   1.186 -0.3037 -0.4014  0.1921
  118DOPC  H14A16156   2.345   7.152   1.286 -0.7420  1.1456  0.6875
  118DOPC  H14B16157   2.231   7.244   1.196  0.7261  0.7902  0.2700
  118DOPC  H14C16158   2.269   7.081   1.150 -1.8001 -0.0726  1.0645
  118DOPC   C1516159   2.345   7.280   0.964  1.6382 -0.5670  0.1286
  118DOPC  H15A16160   2.419   7.332   0.905  0.3125 -0.0108 -1.0655
  118DOPC  H15B16161   2.274   7.355   0.994  2.1008  0.0239 -0.2138
  118DOPC  H15C16162   2.300   7.202   0.905  0.2799  0.3339 -0.0565
  118DOPC   C1116163   2.678   7.209   1.027  0.3709 -0.7607 -0.5493
  118DOPC  H11A16164   2.740   7.128   0.982 -2.8466 -2.6313 -1.9766
  118DOPC  H11B16165   2.664   7.281   0.943 -0.2452 -1.9286 -1.4772
  118DOPC     P16166   2.771   7.185   1.270  0.1748  0.0666 -0.1362
  118DOPC   O1316167   2.900   7.233   1.320  0.0528  0.1966  0.2874
  118DOPC   O1416168   2.761   7.047   1.236  0.1653  0.5392  0.2419
  118DOPC   O1216169   2.734   7.270   1.146  0.0048  0.1691  0.3133
  118DOPC   O1116170   2.648   7.227   1.370  0.0709  0.1228 -0.6172
  118DOPC    C116171   2.657   7.342   1.452  0.7307  0.6697  0.0836
  118DOPC    HA16172   2.556   7.379   1.475 -0.0196 -1.5235  0.5463
  118DOPC    HB16173   2.706   7.430   1.404  2.3030  0.3112  0.9568
  118DOPC    C216174   2.708   7.314   1.597  0.9541 -1.2334 -0.5401
  118DOPC    HS16175   2.813   7.280   1.591  1.2557 -0.1284 -2.7921
  118DOPC   O2116176   2.634   7.213   1.660 -0.0914  0.1351  0.1182
  118DOPC   C2116177   2.697   7.147   1.753  0.6689 -0.4069  0.2947
  118DOPC   O2216178   2.817   7.139   1.767  0.1742  0.1166 -0.4547
  118DOPC   C2216179   2.588   7.100   1.849 -0.4009 -0.0159 -0.4793
  118DOPC   H2R16180   2.540   7.009   1.807 -0.2059 -0.2276 -0.2394
  118DOPC   H2S16181   2.513   7.180   1.868 -2.5418 -1.6063 -1.7745
  118DOPC    C316182   2.711   7.448   1.683 -0.8378 -0.3207 -0.3850
  118DOPC    HX16183   2.613   7.499   1.668  0.4735  1.7279 -2.5963
  118DOPC    HY16184   2.779   7.517   1.629  0.9083 -1.0113  0.8148
  118DOPC   O3116185   2.763   7.436   1.821  0.3908 -0.0376 -0.1470
  118DOPC   C3116186   2.680   7.465   1.920 -0.1444 -0.4579  0.7126
  118DOPC   O3216187   2.565   7.505   1.897  0.0666  0.0437 -0.0586
  118DOPC   C3216188   2.735   7.433   2.055  0.3131  0.2274 -0.6777
  118DOPC   H2X16189   2.797   7.342   2.039  0.6445  0.3891 -0.3284
  118DOPC   H2Y16190   2.812   7.510   2.079  1.5950 -0.8877 -1.1205
  118DOPC   C2316191   2.652   7.071   1.989 -0.5449  1.0413 -0.8009
  118DOPC   H3R16192   2.692   7.169   2.023  1.1829 -0.1132  0.6681
  118DOPC   H3S16193   2.737   7.002   1.971  0.7036  1.6604  2.1971
  118DOPC   C2416194   2.550   7.009   2.088  0.1382 -0.1739  0.2894
  118DOPC   H4R16195   2.514   6.910   2.053 -0.4048  0.3062 -0.5345
  118DOPC   H4S16196   2.465   7.079   2.077 -0.2613 -0.9893 -2.7972
  118DOPC   C2516197   2.587   7.000   2.240 -0.0458  0.0416  0.5255
  118DOPC   H5R16198   2.647   6.907   2.246 -0.7637 -0.8172 -3.0914
  118DOPC   H5S16199   2.651   7.090   2.250 -0.1076  0.1248  0.2022
  118DOPC   C2616200   2.467   7.012   2.335 -0.0900  0.4671  0.0332
  118DOPC   H6R16201   2.398   6.925   2.331  0.4281  0.0859 -1.5674
  118DOPC   H6S16202   2.402   7.096   2.301 -2.0340 -1.6105 -1.7302
  118DOPC   C2716203   2.510   7.034   2.482 -0.1942  0.1693  0.7833
  118DOPC   H7R16204   2.420   7.074   2.535 -1.3485  0.8400 -1.5515
  118DOPC   H7S16205   2.588   7.113   2.492  1.7466 -1.5934  0.2431
  118DOPC   C2816206   2.561   6.909   2.558  0.7444 -0.4112 -0.3094
  118DOPC   H8R16207   2.648   6.865   2.505  0.3481 -0.8763 -0.5809
  118DOPC   H8S16208   2.485   6.828   2.550  0.4531 -0.1981  0.2813
  118DOPC   C2916209   2.592   6.933   2.700  0.6424  0.1194  0.3535
  118DOPC   H9R16210   2.695   6.971   2.708  0.9507 -0.8937  1.6723
  118DOPC  C21016211   2.514   6.899   2.811 -0.4226  0.3657 -0.3124
  118DOPC  H10R16212   2.560   6.913   2.909  0.1227  1.9071 -0.7632
  118DOPC  C21116213   2.372   6.850   2.812  0.1353 -0.1114  0.1112
  118DOPC  H11R16214   2.321   6.887   2.721  0.1433 -2.6217 -0.9828
  118DOPC  H11S16215   2.325   6.895   2.902  0.5178 -0.8831  0.7029
  118DOPC  C21216216   2.374   6.702   2.805 -0.2155 -0.7407  0.3133
  118DOPC  H12R16217   2.423   6.652   2.891  1.5369  0.1300 -0.1329
  118DOPC  H12S16218   2.429   6.661   2.718 -1.3065 -1.1545 -0.2041
  118DOPC  C21316219   2.234   6.647   2.787 -0.0600  0.8556  0.9255
  118DOPC  H13R16220   2.197   6.684   2.689 -2.1940  0.4352  1.5286
  118DOPC  H13S16221   2.171   6.689   2.868 -0.9973  2.0477 -0.3794
  118DOPC  C21416222   2.218   6.491   2.779 -0.2604  0.2106  0.1377
  118DOPC  H14R16223   2.303   6.460   2.715  1.8513  0.8622  2.4410
  118DOPC  H14S16224   2.114   6.473   2.746 -0.6728  0.4253  1.2582
  118DOPC  C21516225   2.254   6.426   2.919 -0.1603  0.1100 -0.2539
  118DOPC  H15R16226   2.352   6.449   2.964  1.4124 -1.2944 -2.7382
  118DOPC  H15S16227   2.245   6.317   2.897  0.0973 -0.0039  0.2104
  118DOPC  C21616228   2.155   6.461   3.027  0.0570 -0.4591 -0.8241
  118DOPC  H16R16229   2.145   6.570   3.047  1.4532 -0.1873 -1.5289
  118DOPC  H16S16230   2.193   6.419   3.122 -0.4910  0.7158 -0.0621
  118DOPC  C21716231   2.011   6.417   2.996 -0.3188  0.4513 -0.2856
  118DOPC  H17R16232   2.001   6.328   2.929 -1.3458 -1.8264  2.6476
  118DOPC  H17S16233   1.972   6.509   2.948  2.4290  1.7717 -0.1920
  118DOPC  C21816234   1.941   6.391   3.135 -0.2599 -0.6373  0.2822
  118DOPC  H18R16235   1.854   6.324   3.121  0.4119 -1.6432  0.8029
  118DOPC  H18S16236   1.913   6.485   3.189 -2.3786 -1.5062  0.8035
  118DOPC  H18T16237   2.012   6.335   3.199 -1.0947 -2.6423 -0.4919
  118DOPC   C3316238   2.627   7.438   2.162 -0.3543  0.8841 -0.4959
  118DOPC   H3X16239   2.561   7.352   2.135  0.1217  0.2713  0.2665
  118DOPC   H3Y16240   2.563   7.528   2.148  2.5603  3.0624 -0.8290
  118DOPC   C3416241   2.681   7.427   2.306  0.1318 -0.1007 -0.2577
  118DOPC   H4X16242   2.763   7.499   2.323 -0.4367  0.6486 -0.6286
  118DOPC   H4Y16243   2.729   7.327   2.304  3.1228  1.2497 -0.8417
  118DOPC   C3516244   2.573   7.449   2.413 -0.4003 -0.3927 -0.4675
  118DOPC   H5X16245   2.506   7.361   2.405 -0.7884 -0.1760  0.3350
  118DOPC   H5Y16246   2.517   7.543   2.391  0.0145  0.0758  0.4102
  118DOPC   C3616247   2.626   7.447   2.563 -0.2719  1.2442  0.3239
  118DOPC   H6X16248   2.704   7.373   2.589  0.6282  2.0748  0.0437
  118DOPC   H6Y16249   2.677   7.544   2.583  0.5312  0.4360  2.5465
  118DOPC   C3716250   2.508   7.423   2.655  0.4113  0.6531  0.7534
  118DOPC   H7X16251   2.416   7.462   2.607  0.8988  0.1530 -0.6437
  118DOPC   H7Y16252   2.496   7.313   2.661 -1.1074  0.6459 -1.3673
  118DOPC   C3816253   2.525   7.493   2.789 -0.0136 -0.8461 -0.2632
  118DOPC   H8X16254   2.423   7.490   2.834 -1.9487 -0.1737 -4.2008
  118DOPC   H8Y16255   2.538   7.601   2.771 -2.7089 -0.6132 -1.3941
  118DOPC   C3916256   2.641   7.435   2.864  0.3785  0.2806  0.3790
  118DOPC   H9X16257   2.736   7.482   2.832  0.1224  1.8525  1.7872
  118DOPC  C31016258   2.627   7.354   2.971  0.1744  0.0915 -0.3911
  118DOPC  H10X16259   2.717   7.311   3.018  0.2101 -0.8695 -1.3025
  118DOPC  C31116260   2.492   7.303   3.016  0.5744  0.2800 -0.8330
  118DOPC  H11X16261   2.498   7.204   3.067 -2.2993  0.9799  1.1382
  118DOPC  H11Y16262   2.421   7.292   2.932  0.2514 -1.2454 -0.4008
  118DOPC  C31216263   2.427   7.402   3.114 -0.4539 -0.4927  0.2890
  118DOPC  H12X16264   2.322   7.371   3.132  0.1754 -3.2482 -0.3480
  118DOPC  H12Y16265   2.416   7.501   3.065  1.9147 -0.2975  0.0496
  118DOPC  C31316266   2.488   7.419   3.259  0.1264 -0.5695  0.8866
  118DOPC  H13X16267   2.451   7.344   3.332 -1.5863  0.2406  0.8862
  118DOPC  H13Y16268   2.597   7.404   3.241  0.4066  1.5168  0.6552
  118DOPC  C31416269   2.464   7.555   3.321 -0.2535  0.0958  0.0679
  118DOPC  H14X16270   2.527   7.633   3.272 -0.6440  0.2637 -0.1634
  118DOPC  H14Y16271   2.358   7.588   3.318 -0.9717 -2.1304 -0.6240
  118DOPC  C31516272   2.503   7.551   3.470  0.3215 -0.6220 -0.0573
  118DOPC  H15X16273   2.607   7.516   3.488  0.5516 -0.6100 -1.2647
  118DOPC  H15Y16274   2.432   7.483   3.522 -0.6356  0.8325  0.6170
  118DOPC  C31616275   2.491   7.683   3.562  0.0776 -0.0097 -0.4879
  118DOPC  H16X16276   2.575   7.741   3.519 -0.0263 -0.7263 -1.6883
  118DOPC  H16Y16277   2.393   7.733   3.546 -0.0800  0.0058  0.4770
  118DOPC  C31716278   2.521   7.654   3.714  0.4463 -0.1917  0.3636
  118DOPC  H17X16279   2.619   7.602   3.714  1.7206  2.0383 -1.0616
  118DOPC  H17Y16280   2.534   7.749   3.772 -0.3695 -1.2211  2.3295
  118DOPC  C31816281   2.402   7.580   3.782 -0.5527  0.2593 -0.0406
  118DOPC  H18X16282   2.306   7.636   3.776  0.2674  1.8165  0.8972
  118DOPC  H18Y16283   2.376   7.478   3.745  0.9341 -0.0794 -0.2259
  118DOPC  H18Z16284   2.416   7.575   3.892  0.4870 -0.0392 -0.1778
  119DOPC     N16285   6.293   6.119   1.546  0.1485 -0.1985  0.0958
  119DOPC   C1216286   6.349   6.003   1.466 -0.9490 -0.3853  0.5002
  119DOPC  H12A16287   6.456   5.991   1.482  0.1032  1.2108 -3.8221
  119DOPC  H12B16288   6.342   6.021   1.359  1.4957 -1.2097  0.1165
  119DOPC   C1316289   6.358   6.244   1.511  0.0533  0.2160 -0.7951
  119DOPC  H13A16290   6.305   6.329   1.551 -0.1310 -1.8699  4.0819
  119DOPC  H13B16291   6.463   6.240   1.539 -0.5408  2.1536  2.1940
  119DOPC  H13C16292   6.352   6.256   1.404  0.7070 -0.0025 -0.8637
  119DOPC   C1416293   6.324   6.088   1.692  0.0150 -0.2739 -0.2571
  119DOPC  H14A16294   6.296   6.172   1.753  1.2575  0.6765 -0.9373
  119DOPC  H14B16295   6.272   5.998   1.721  0.5713 -0.3801  0.4292
  119DOPC  H14C16296   6.430   6.072   1.701  0.2098 -0.5712 -2.3943
  119DOPC   C1516297   6.144   6.134   1.518 -0.3586 -0.5213  0.4717
  119DOPC  H15A16298   6.095   6.169   1.608 -1.2642 -0.1805 -0.1417
  119DOPC  H15B16299   6.103   6.035   1.512  0.9360 -1.0761  0.5720
  119DOPC  H15C16300   6.123   6.201   1.435  2.8473 -1.5710 -1.3669
  119DOPC   C1116301   6.292   5.863   1.491 -0.2271 -0.2417 -0.1345
  119DOPC  H11A16302   6.184   5.881   1.476  0.2594  1.3535 -2.1613
  119DOPC  H11B16303   6.308   5.792   1.407 -2.7928  0.8663 -1.6680
  119DOPC     P16304   6.477   5.763   1.639 -0.5105  0.1169 -0.1352
  119DOPC   O1316305   6.572   5.878   1.603 -0.2984  0.2183 -1.0540
  119DOPC   O1416306   6.501   5.639   1.564 -0.6268  0.2128 -0.0714
  119DOPC   O1216307   6.323   5.803   1.615 -0.3155  0.6705 -0.3084
  119DOPC   O1116308   6.478   5.734   1.790  0.3778  0.0649 -0.1071
  119DOPC    C116309   6.400   5.628   1.847 -0.6576 -0.0762 -0.3259
  119DOPC    HA16310   6.360   5.557   1.772  0.6496 -1.3445  0.1437
  119DOPC    HB16311   6.316   5.671   1.907 -0.1710 -0.7156  0.8447
  119DOPC    C216312   6.475   5.544   1.948 -0.2897  0.4313 -0.6760
  119DOPC    HS16313   6.416   5.452   1.970  1.7377 -1.1099 -1.3650
  119DOPC   O2116314   6.493   5.622   2.072 -0.3834  0.1480  0.5677
  119DOPC   C2116315   6.401   5.615   2.169  0.3981 -0.1272  0.4763
  119DOPC   O2216316   6.301   5.553   2.163 -0.2149  0.6136  0.1942
  119DOPC   C2216317   6.456   5.708   2.278  0.6465  0.4499  0.6685
  119DOPC   H2R16318   6.372   5.735   2.345 -0.0756  0.6077 -0.2808
  119DOPC   H2S16319   6.479   5.810   2.240 -0.0453  0.6004  0.6455
  119DOPC    C316320   6.609   5.510   1.890 -0.6167 -0.0162 -0.1250
  119DOPC    HX16321   6.659   5.602   1.853 -4.7774  2.0285 -1.3089
  119DOPC    HY16322   6.594   5.455   1.795 -0.5437  1.5268 -1.0759
  119DOPC   O3116323   6.690   5.454   1.991  0.1537 -0.5184 -0.1265
  119DOPC   C3116324   6.704   5.315   1.992  0.6160 -0.4397  0.9830
  119DOPC   O3216325   6.664   5.244   1.903  0.1141 -0.5553 -0.2127
  119DOPC   C3216326   6.797   5.272   2.107 -0.3148  0.1289  0.0860
  119DOPC   H2X16327   6.888   5.245   2.049  0.4175  0.5966  0.9804
  119DOPC   H2Y16328   6.824   5.362   2.166 -0.9350 -0.0555  0.6666
  119DOPC   C2316329   6.578   5.657   2.355  0.6791  0.2460 -0.4089
  119DOPC   H3R16330   6.628   5.738   2.412  1.0360 -1.7762  2.3781
  119DOPC   H3S16331   6.641   5.613   2.274 -0.8987  0.2253 -1.6638
  119DOPC   C2416332   6.538   5.557   2.469 -0.3741 -0.3260  0.6104
  119DOPC   H4R16333   6.630   5.508   2.509 -0.8645 -1.1188  0.7940
  119DOPC   H4S16334   6.480   5.476   2.419 -0.2203  0.4294 -0.8576
  119DOPC   C2516335   6.463   5.618   2.585 -0.1271  0.5898  0.7867
  119DOPC   H5R16336   6.366   5.664   2.558 -0.9272 -1.0297  0.8022
  119DOPC   H5S16337   6.521   5.708   2.615  1.1329 -0.1333  0.5747
  119DOPC   C2616338   6.457   5.533   2.710  0.5919 -0.1237  0.2598
  119DOPC   H6R16339   6.558   5.506   2.747  0.5286 -1.4855 -0.5118
  119DOPC   H6S16340   6.404   5.436   2.694  0.3046 -0.1369  1.2199
  119DOPC   C2716341   6.404   5.608   2.834  0.0597 -0.7601  0.1150
  119DOPC   H7R16342   6.296   5.621   2.808 -0.0731 -3.0203 -0.6963
  119DOPC   H7S16343   6.452   5.707   2.846  0.4597 -1.0049  0.5591
  119DOPC   C2816344   6.414   5.531   2.967 -0.0545 -0.0854  0.0730
  119DOPC   H8R16345   6.369   5.431   2.953  1.0583 -0.6330  0.3021
  119DOPC   H8S16346   6.344   5.578   3.039  2.3332  1.1820  1.7533
  119DOPC   C2916347   6.550   5.511   3.037  0.1427  0.0498 -0.6751
  119DOPC   H9R16348   6.625   5.467   2.970  0.4176 -3.2968  1.6153
  119DOPC  C21016349   6.585   5.538   3.168  0.4269  0.4054  0.8016
  119DOPC  H10R16350   6.675   5.487   3.206  0.7224 -0.3107 -0.7633
  119DOPC  C21116351   6.492   5.589   3.273 -0.1340 -0.0810 -0.1383
  119DOPC  H11R16352   6.404   5.644   3.234 -1.0453 -1.1599  0.3270
  119DOPC  H11S16353   6.541   5.666   3.337  0.2638 -2.7054  2.9842
  119DOPC  C21216354   6.431   5.490   3.372 -0.4710 -0.1599 -1.0539
  119DOPC  H12R16355   6.347   5.434   3.325 -0.2037  0.1975 -1.9803
  119DOPC  H12S16356   6.390   5.529   3.468 -1.3488 -0.5697 -1.2500
  119DOPC  C21316357   6.535   5.400   3.438 -0.2569 -0.0526  0.5922
  119DOPC  H13R16358   6.614   5.468   3.476  0.5658 -1.0629  0.7458
  119DOPC  H13S16359   6.574   5.331   3.360  2.0547  0.0549  1.5925
  119DOPC  C21416360   6.469   5.323   3.554  0.2365  0.1285  0.6158
  119DOPC  H14R16361   6.439   5.395   3.634 -1.8142 -2.0087  1.9016
  119DOPC  H14S16362   6.550   5.269   3.607  0.2129 -0.3711  0.1494
  119DOPC  C21516363   6.349   5.225   3.520 -0.6314  0.5340 -0.0603
  119DOPC  H15R16364   6.372   5.171   3.426 -0.4768  2.9281 -1.4797
  119DOPC  H15S16365   6.267   5.297   3.499  0.3497  1.2211 -1.7213
  119DOPC  C21616366   6.314   5.133   3.639  0.2585 -0.0451  1.0367
  119DOPC  H16R16367   6.225   5.078   3.603  0.0770  1.3733 -0.8356
  119DOPC  H16S16368   6.294   5.188   3.734 -1.0277 -0.0131  0.7616
  119DOPC  C21716369   6.407   5.017   3.663  0.2995  0.3637  0.1778
  119DOPC  H17R16370   6.511   5.050   3.683  0.4048 -0.1272  0.4718
  119DOPC  H17S16371   6.418   4.963   3.567  2.0357  2.8087 -1.1110
  119DOPC  C21816372   6.365   4.910   3.770  0.2253 -0.7434  0.0003
  119DOPC  H18R16373   6.431   4.821   3.784 -0.1813 -1.0671 -0.1147
  119DOPC  H18S16374   6.269   4.862   3.742  1.3705 -3.1652 -0.0738
  119DOPC  H18T16375   6.368   4.953   3.872  2.6360 -0.5377 -0.1010
  119DOPC   C3316376   6.723   5.159   2.181 -0.4340 -0.0994 -0.6036
  119DOPC   H3X16377   6.794   5.115   2.253 -0.8407  0.4197  0.1302
  119DOPC   H3Y16378   6.696   5.084   2.104  2.5837 -0.5193 -1.3854
  119DOPC   C3416379   6.606   5.208   2.272 -0.1288  0.0710 -0.5649
  119DOPC   H4X16380   6.554   5.296   2.228  1.7849  0.5358 -2.0467
  119DOPC   H4Y16381   6.648   5.262   2.360 -0.8277  1.1175 -0.8459
  119DOPC   C3516382   6.505   5.097   2.299 -0.4323  0.6847  0.3927
  119DOPC   H5X16383   6.553   5.004   2.336 -1.4268  0.2482  0.6358
  119DOPC   H5Y16384   6.465   5.059   2.203 -0.2798  3.3949 -0.8219
  119DOPC   C3616385   6.384   5.151   2.376 -0.3495 -0.5725  0.4148
  119DOPC   H6X16386   6.344   5.249   2.342  1.9505  0.5175  0.6918
  119DOPC   H6Y16387   6.299   5.080   2.377 -0.6387 -0.2503 -0.4260
  119DOPC   C3716388   6.418   5.161   2.527  0.2324 -0.2554  0.4179
  119DOPC   H7X16389   6.468   5.065   2.553 -0.1139 -0.8250 -0.9219
  119DOPC   H7Y16390   6.490   5.240   2.555  1.1097 -0.7183 -0.4370
  119DOPC   C3816391   6.284   5.182   2.605 -0.6816  0.0553 -0.3177
  119DOPC   H8X16392   6.206   5.125   2.550 -0.0199 -0.6175 -0.5672
  119DOPC   H8Y16393   6.251   5.287   2.594  0.5141  0.5523  0.5658
  119DOPC   C3916394   6.297   5.138   2.749  0.7093 -0.3452 -0.4801
  119DOPC   H9X16395   6.341   5.213   2.817  2.2266 -2.1734  0.6783
  119DOPC  C31016396   6.268   5.012   2.803  0.1940 -0.3623  0.6820
  119DOPC  H10X16397   6.285   4.988   2.909 -0.4411  0.7582  1.0558
  119DOPC  C31116398   6.211   4.891   2.728  0.6009  0.0778 -0.7983
  119DOPC  H11X16399   6.193   4.908   2.620  0.4866  0.7684 -0.6708
  119DOPC  H11Y16400   6.111   4.872   2.774  0.3030  0.9623 -1.0733
  119DOPC  C31216401   6.319   4.779   2.740  0.3994  0.1105  0.5183
  119DOPC  H12X16402   6.420   4.815   2.711  1.2195 -1.3272  1.4884
  119DOPC  H12Y16403   6.304   4.692   2.673  0.6728  0.2616  0.2548
  119DOPC  C31316404   6.326   4.706   2.877  0.0272 -0.4781  0.7203
  119DOPC  H13X16405   6.334   4.775   2.964  1.6515 -0.6178  0.7150
  119DOPC  H13Y16406   6.224   4.663   2.894 -0.2946  0.7426  2.0808
  119DOPC  C31416407   6.430   4.592   2.870  0.0061 -0.1863 -0.3329
  119DOPC  H14X16408   6.401   4.518   2.792 -2.1719 -0.8584  1.0027
  119DOPC  H14Y16409   6.527   4.639   2.844 -0.5334  0.8711 -0.4949
  119DOPC  C31516410   6.452   4.529   3.001  0.2976  0.0501 -0.1612
  119DOPC  H15X16411   6.355   4.507   3.051  0.9175  1.0616  1.5696
  119DOPC  H15Y16412   6.509   4.604   3.060  1.2201  0.0314 -1.0060
  119DOPC  C31616413   6.536   4.400   2.989 -0.0442 -0.2276  0.4388
  119DOPC  H16X16414   6.493   4.339   2.907  1.4741 -1.6407  0.6405
  119DOPC  H16Y16415   6.639   4.426   2.959  0.0734 -3.0564 -2.0864
  119DOPC  C31716416   6.556   4.341   3.128 -0.2247 -0.5819 -0.5761
  119DOPC  H17X16417   6.598   4.414   3.200 -0.3100  0.1618 -1.2674
  119DOPC  H17Y16418   6.456   4.302   3.156  0.5525 -1.6677  0.8565
  119DOPC  C31816419   6.652   4.224   3.104 -0.2035  0.2338 -0.0889
  119DOPC  H18X16420   6.633   4.157   3.017  4.1325  0.1984 -1.2777
  119DOPC  H18Y16421   6.752   4.268   3.083 -0.4656  0.2623 -1.3300
  119DOPC  H18Z16422   6.660   4.162   3.196 -0.3429  0.6811  0.2264
  120DOPC     N16423   4.116   7.121   1.499  0.2038 -0.0243  0.4854
  120DOPC   C1216424   4.073   7.250   1.567 -0.1914 -0.8127  0.5161
  120DOPC  H12A16425   3.984   7.227   1.624 -1.2766  0.0086 -0.7870
  120DOPC  H12B16426   4.045   7.319   1.489 -0.8043 -1.5969  0.0288
  120DOPC   C1316427   4.162   7.010   1.591  0.4198  0.1861 -0.8520
  120DOPC  H13A16428   4.088   7.000   1.668  1.6478  2.1281  0.6707
  120DOPC  H13B16429   4.178   6.916   1.539  0.3756  0.0949 -0.7009
  120DOPC  H13C16430   4.256   7.037   1.637 -0.6104  1.2894  0.6767
  120DOPC   C1416431   4.233   7.149   1.408 -0.1023 -0.0029  1.0136
  120DOPC  H14A16432   4.274   7.054   1.376 -1.7812 -0.5800  0.4623
  120DOPC  H14B16433   4.212   7.205   1.318  1.4061 -1.1526 -0.1108
  120DOPC  H14C16434   4.305   7.205   1.465 -0.4578 -0.5634  2.0454
  120DOPC   C1516435   3.992   7.086   1.414 -0.4713 -0.3772  0.1405
  120DOPC  H15A16436   3.969   7.162   1.341 -1.1282  0.0230  0.7567
  120DOPC  H15B16437   3.902   7.066   1.470 -1.9535  1.3463 -1.5016
  120DOPC  H15C16438   4.019   7.003   1.349 -2.5254  0.3675 -1.7876
  120DOPC   C1116439   4.170   7.309   1.671  0.0199  0.2493 -0.1558
  120DOPC  H11A16440   4.114   7.385   1.731  3.2393  2.3906  0.4386
  120DOPC  H11B16441   4.196   7.235   1.750 -1.7952 -0.1684  0.1109
  120DOPC     P16442   4.302   7.484   1.528  0.2523 -0.0353 -0.2126
  120DOPC   O1316443   4.176   7.499   1.451  0.2973  0.3562 -0.3909
  120DOPC   O1416444   4.428   7.475   1.445 -0.0553 -0.4220  0.2924
  120DOPC   O1216445   4.294   7.355   1.618  0.0594  0.1515 -0.3924
  120DOPC   O1116446   4.316   7.607   1.624 -0.0609  0.2052  0.8904
  120DOPC    C116447   4.435   7.614   1.709 -0.0676  0.3275  0.0281
  120DOPC    HA16448   4.460   7.718   1.738  0.6704 -0.1468  1.1920
  120DOPC    HB16449   4.526   7.591   1.651  1.0510  0.5802  1.6141
  120DOPC    C216450   4.418   7.524   1.839  0.4242  0.8705  0.4803
  120DOPC    HS16451   4.383   7.424   1.806  2.6574  0.7143 -1.7010
  120DOPC   O2116452   4.311   7.577   1.927 -0.4449  0.2040 -0.4132
  120DOPC   C2116453   4.298   7.488   2.029  0.1577 -0.6539 -0.0170
  120DOPC   O2216454   4.332   7.377   2.030  0.6229 -0.3681 -0.1620
  120DOPC   C2216455   4.246   7.562   2.157 -0.0320 -0.4501 -0.1595
  120DOPC   H2R16456   4.144   7.521   2.173 -0.5393  0.5073 -0.8238
  120DOPC   H2S16457   4.244   7.670   2.130  1.3157 -0.0224  1.3017
  120DOPC    C316458   4.556   7.499   1.906 -0.6053  0.1602 -0.2298
  120DOPC    HX16459   4.615   7.480   1.814  2.7315 -0.3536  1.8493
  120DOPC    HY16460   4.563   7.416   1.981  1.3883  1.2604  0.8893
  120DOPC   O3116461   4.597   7.619   1.971  0.1439 -0.4187 -0.8106
  120DOPC   C3116462   4.704   7.690   1.930 -0.0482 -0.0980  0.7932
  120DOPC   O3216463   4.763   7.664   1.826 -0.2538 -0.4356 -0.3670
  120DOPC   C3216464   4.727   7.815   2.011  0.0233 -0.3373 -0.2685
  120DOPC   H2X16465   4.834   7.843   2.025  0.0669 -1.0529  1.0278
  120DOPC   H2Y16466   4.684   7.898   1.952  0.1858 -0.2321 -0.2390
  120DOPC   C2316467   4.331   7.528   2.277  0.3174 -0.4903 -0.1141
  120DOPC   H3R16468   4.437   7.562   2.275  1.1911 -2.9901 -0.8607
  120DOPC   H3S16469   4.335   7.419   2.297  0.4700 -0.7725 -1.5502
  120DOPC   C2416470   4.267   7.592   2.406  0.2215 -0.2299 -0.3449
  120DOPC   H4R16471   4.177   7.539   2.446 -0.6013  0.6779 -0.9589
  120DOPC   H4S16472   4.236   7.691   2.367  0.4834 -1.0720 -2.8881
  120DOPC   C2516473   4.358   7.610   2.525  0.8000  0.3587 -0.3416
  120DOPC   H5R16474   4.454   7.647   2.483  0.6080  1.5753  0.2417
  120DOPC   H5S16475   4.391   7.510   2.561  1.8206 -1.2666 -5.0890
  120DOPC   C2616476   4.298   7.687   2.638 -0.5909  0.1572  0.8748
  120DOPC   H6R16477   4.200   7.647   2.671 -1.1135 -1.4970 -2.2875
  120DOPC   H6S16478   4.270   7.780   2.583 -1.4444 -0.4316  0.2824
  120DOPC   C2716479   4.392   7.721   2.751 -0.2462 -0.6615  0.6975
  120DOPC   H7R16480   4.490   7.742   2.701 -1.9565 -0.4879 -2.9233
  120DOPC   H7S16481   4.404   7.632   2.816  0.2996 -3.1041 -2.4931
  120DOPC   C2816482   4.342   7.833   2.850 -0.2922  0.3998  0.3432
  120DOPC   H8R16483   4.267   7.781   2.912  0.5523 -3.4642 -1.5951
  120DOPC   H8S16484   4.284   7.904   2.786 -1.2091 -1.4759 -1.0042
  120DOPC   C2916485   4.456   7.892   2.930  0.0974 -0.7872  0.0369
  120DOPC   H9R16486   4.511   7.969   2.874 -2.4916  1.5465  0.4784
  120DOPC  C21016487   4.494   7.868   3.061  0.4278 -0.2603  0.3694
  120DOPC  H10R16488   4.572   7.929   3.110  0.6584 -2.2009  2.6377
  120DOPC  C21116489   4.435   7.764   3.158 -0.3160 -0.0375  0.7752
  120DOPC  H11R16490   4.442   7.666   3.106  1.0019  0.5576 -0.2190
  120DOPC  H11S16491   4.326   7.774   3.177 -0.0991  1.0237  1.5086
  120DOPC  C21216492   4.508   7.764   3.291 -0.2358  0.8693  0.1561
  120DOPC  H12R16493   4.514   7.869   3.328  0.3372  0.8547  0.1112
  120DOPC  H12S16494   4.614   7.742   3.268 -0.4280  0.3494 -0.2627
  120DOPC  C21316495   4.455   7.656   3.385  0.2466 -0.8263 -0.3545
  120DOPC  H13R16496   4.529   7.638   3.466 -0.4933 -0.2332  0.4750
  120DOPC  H13S16497   4.429   7.563   3.332  0.8583 -2.1396  1.5424
  120DOPC  C21416498   4.321   7.706   3.454 -0.7955 -1.0039 -0.1142
  120DOPC  H14R16499   4.250   7.708   3.369  0.6728 -0.5156 -1.3740
  120DOPC  H14S16500   4.333   7.811   3.489  1.1792 -1.9726  2.4475
  120DOPC  C21516501   4.279   7.621   3.570 -0.6059 -0.3398  0.2690
  120DOPC  H15R16502   4.321   7.651   3.669 -0.0940  2.4215 -0.7053
  120DOPC  H15S16503   4.323   7.520   3.559 -0.0574 -0.0773 -0.0022
  120DOPC  C21616504   4.129   7.623   3.585 -0.4383 -0.0803 -0.2363
  120DOPC  H16R16505   4.078   7.607   3.488  0.2471  1.4906 -0.8867
  120DOPC  H16S16506   4.099   7.726   3.616  0.5766  0.3899 -0.7779
  120DOPC  C21716507   4.075   7.515   3.682 -0.1448  1.2538  0.2447
  120DOPC  H17R16508   4.132   7.422   3.662 -0.2203  1.1448  0.5277
  120DOPC  H17S16509   3.966   7.499   3.668 -0.0675  1.0355 -0.1168
  120DOPC  C21816510   4.089   7.562   3.835  0.4658 -0.1733  0.9955
  120DOPC  H18R16511   4.005   7.630   3.864  0.1658 -0.5815  1.0871
  120DOPC  H18S16512   4.183   7.618   3.855 -0.3583  1.0101  1.7455
  120DOPC  H18T16513   4.075   7.467   3.891 -1.3701 -0.7308 -0.3177
  120DOPC   C3316514   4.672   7.804   2.152  0.4489 -0.1899 -0.2958
  120DOPC   H3X16515   4.571   7.761   2.167  1.0882 -0.9128  2.4297
  120DOPC   H3Y16516   4.679   7.907   2.194 -0.3810 -0.6354  0.9967
  120DOPC   C3416517   4.762   7.724   2.247  0.3629 -0.6403  0.8518
  120DOPC   H4X16518   4.866   7.742   2.215  0.1692  0.8400  1.0043
  120DOPC   H4Y16519   4.739   7.616   2.236 -0.3906 -0.5994  1.8375
  120DOPC   C3516520   4.743   7.765   2.391  0.5258 -0.6395  0.1020
  120DOPC   H5X16521   4.641   7.760   2.432 -0.1945 -1.4241 -1.6697
  120DOPC   H5Y16522   4.775   7.871   2.394 -0.3137 -0.4034  1.9106
  120DOPC   C3616523   4.825   7.681   2.495 -0.0461 -0.3660  0.0387
  120DOPC   H6X16524   4.816   7.571   2.479  1.7527 -0.3836 -1.1174
  120DOPC   H6Y16525   4.928   7.717   2.479 -1.4084  3.5473 -1.0049
  120DOPC   C3716526   4.777   7.708   2.636  0.1123 -0.8286 -0.3744
  120DOPC   H7X16527   4.765   7.818   2.627 -0.8821 -0.8611  0.3462
  120DOPC   H7Y16528   4.675   7.663   2.640 -1.1445  1.7760  3.7347
  120DOPC   C3816529   4.859   7.633   2.739  0.0540  0.0409 -0.9166
  120DOPC   H8X16530   4.967   7.657   2.733  0.4091 -0.6678  1.3955
  120DOPC   H8Y16531   4.847   7.523   2.735  1.0511 -0.0792 -0.8843
  120DOPC   C3916532   4.827   7.698   2.872  0.3115  0.1934  0.4232
  120DOPC   H9X16533   4.771   7.793   2.867 -0.3642 -0.2566 -0.8748
  120DOPC  C31016534   4.845   7.640   2.991 -0.1150  0.2997  0.2714
  120DOPC  H10X16535   4.813   7.704   3.074 -2.0567  3.0202 -2.3858
  120DOPC  C31116536   4.912   7.505   3.018  0.4218  0.2409  1.1849
  120DOPC  H11X16537   4.997   7.497   2.947  1.8246  0.9157  2.7161
  120DOPC  H11Y16538   4.838   7.423   3.007  0.7686  0.0711 -0.0070
  120DOPC  C31216539   4.981   7.512   3.153  0.5978 -1.2153 -0.0390
  120DOPC  H12X16540   5.049   7.600   3.155 -2.6195  1.4240  1.0813
  120DOPC  H12Y16541   5.044   7.421   3.165  1.0780 -1.0378 -1.0528
  120DOPC  C31316542   4.877   7.512   3.272 -0.0804  0.0703 -0.1220
  120DOPC  H13X16543   4.931   7.501   3.368 -2.2422 -2.4206  0.9262
  120DOPC  H13Y16544   4.812   7.602   3.262 -0.4656 -0.0917  0.8379
  120DOPC  C31416545   4.790   7.387   3.271 -0.1458 -0.4910 -0.7280
  120DOPC  H14X16546   4.709   7.398   3.197  1.4972  0.3810 -2.5010
  120DOPC  H14Y16547   4.843   7.294   3.243  0.2985 -0.3193 -0.4757
  120DOPC  C31516548   4.727   7.362   3.408 -0.3758  0.2429  0.3443
  120DOPC  H15X16549   4.652   7.441   3.434 -0.6586  0.3613 -0.7419
  120DOPC  H15Y16550   4.801   7.355   3.490  0.8379 -1.5350 -0.8408
  120DOPC  C31616551   4.643   7.234   3.414 -0.2970 -0.1140  0.0061
  120DOPC  H16X16552   4.583   7.238   3.321  1.8916  1.1828 -1.4283
  120DOPC  H16Y16553   4.712   7.147   3.420 -0.1440  0.0241  0.2229
  120DOPC  C31716554   4.541   7.221   3.533 -0.1558  0.7288  0.4921
  120DOPC  H17X16555   4.463   7.298   3.518 -0.7140  0.3983  1.6038
  120DOPC  H17Y16556   4.489   7.123   3.530  0.2057  0.5165  0.9218
  120DOPC  C31816557   4.605   7.240   3.663  0.3573  0.2340  0.7464
  120DOPC  H18X16558   4.522   7.244   3.738  0.5151 -0.1960  0.9458
  120DOPC  H18Y16559   4.687   7.168   3.679  1.0373  0.8657  0.1484
  120DOPC  H18Z16560   4.643   7.344   3.665  0.5735  0.1588  2.9670
  121DOPC     N16561   8.337   7.367   1.119 -0.1559 -0.0628  0.5232
  121DOPC   C1216562   8.390   7.456   1.229 -0.2136 -0.7817 -0.2334
  121DOPC  H12A16563   8.361   7.555   1.195 -0.8803 -1.6131 -2.2447
  121DOPC  H12B16564   8.497   7.444   1.236 -0.0135  0.3160 -0.9575
  121DOPC   C1316565   8.427   7.385   1.000 -0.1840 -0.7738  0.2455
  121DOPC  H13A16566   8.426   7.483   0.955 -0.1272 -1.9159 -2.4160
  121DOPC  H13B16567   8.532   7.361   1.006 -0.0484 -0.4443 -0.6330
  121DOPC  H13C16568   8.401   7.327   0.913  0.1195  0.7200 -0.8706
  121DOPC   C1416569   8.192   7.405   1.081  0.4875 -0.1441 -0.0408
  121DOPC  H14A16570   8.123   7.387   1.162  1.0680 -1.3129  0.2239
  121DOPC  H14B16571   8.183   7.510   1.056  3.1999  1.3180  3.9421
  121DOPC  H14C16572   8.158   7.346   0.998  1.3832  0.7423 -1.0779
  121DOPC   C1516573   8.347   7.226   1.170  0.3714 -0.1955  0.5243
  121DOPC  H15A16574   8.441   7.199   1.217 -1.0102 -0.6533  3.2465
  121DOPC  H15B16575   8.330   7.151   1.094 -4.0384  1.3146 -0.2787
  121DOPC  H15C16576   8.273   7.202   1.246  1.3356 -1.9987  0.9552
  121DOPC   C1116577   8.341   7.432   1.374  0.2844 -0.4321  0.3640
  121DOPC  H11A16578   8.347   7.517   1.445  1.7767  0.1083 -0.3660
  121DOPC  H11B16579   8.232   7.415   1.363  0.6192 -2.7388  0.2000
  121DOPC     P16580   0.011   7.330   1.484  0.4425  0.2499  0.3465
  121DOPC   O1316581   0.105   7.383   1.382 -0.1818  0.3648  0.0846
  121DOPC   O1416582   0.052   7.202   1.537 -0.3537 -0.2021 -0.5683
  121DOPC   O1216583   8.404   7.313   1.434  0.2048  0.4829  0.5766
  121DOPC   O1116584   8.516   7.430   1.600  0.3106  0.1928  0.2440
  121DOPC    C116585   0.044   7.562   1.602 -0.7609  0.0117  0.2896
  121DOPC    HA16586   8.533   7.633   1.674 -1.8315 -0.8579  0.4719
  121DOPC    HB16587   0.026   7.601   1.499  1.2560  0.8198  0.1934
  121DOPC    C216588   0.195   7.551   1.639  0.5838 -0.0275 -0.1964
  121DOPC    HS16589   0.238   7.481   1.565 -1.6445 -0.8712 -0.7833
  121DOPC   O2116590   0.200   7.492   1.770 -0.0587 -0.1542  0.3595
  121DOPC   C2116591   0.313   7.446   1.806 -0.6681  0.0268  0.0242
  121DOPC   O2216592   0.413   7.428   1.734 -0.3670  0.2682 -0.3299
  121DOPC   C2216593   0.293   7.407   1.951 -0.7094  0.5153 -0.5898
  121DOPC   H2R16594   0.389   7.431   2.002 -1.1327  0.8090  0.0910
  121DOPC   H2S16595   0.289   7.296   1.947 -4.2092  0.5740 -2.6950
  121DOPC    C316596   0.271   7.683   1.627  0.0234 -0.4487  1.1007
  121DOPC    HX16597   0.268   7.708   1.519  0.5498 -3.2769  0.3545
  121DOPC    HY16598   0.377   7.664   1.650  0.5964  0.2154 -0.8030
  121DOPC   O3116599   0.207   7.776   1.705  0.3234  0.6722  0.4246
  121DOPC   C3116600   0.214   7.908   1.672 -0.3070 -0.1519  0.4479
  121DOPC   O3216601   0.291   7.954   1.593 -0.3134  0.1585 -0.6064
  121DOPC   C3216602   0.102   7.991   1.742  0.3504  0.2042 -0.1851
  121DOPC   H2X16603   0.055   8.032   1.650  1.0068 -1.7748 -1.4554
  121DOPC   H2Y16604   0.039   7.920   1.800  0.7718 -1.1610 -1.3292
  121DOPC   C2316605   0.164   7.457   2.024 -0.2931  0.2390  0.2281
  121DOPC   H3R16606   0.132   7.390   2.107 -0.6265  2.8059  2.3396
  121DOPC   H3S16607   0.080   7.437   1.954  1.4442 -1.4651 -1.4697
  121DOPC   C2416608   0.175   7.597   2.093  0.4800  0.1607  0.7325
  121DOPC   H4R16609   0.078   7.627   2.138  0.7640 -0.8712  2.1005
  121DOPC   H4S16610   0.194   7.667   2.009 -1.0846 -1.0593 -0.7062
  121DOPC   C2516611   0.281   7.595   2.203 -0.2408  0.2163  0.1821
  121DOPC   H5R16612   0.381   7.560   2.171  0.3289  1.7394  0.2197
  121DOPC   H5S16613   0.253   7.518   2.278  1.6576 -1.2398 -0.5176
  121DOPC   C2616614   0.316   7.721   2.274 -0.0235 -0.4343 -0.2398
  121DOPC   H6R16615   0.226   7.772   2.315  0.3793  0.7377 -0.7592
  121DOPC   H6S16616   0.361   7.792   2.202 -1.9545 -0.0063 -1.0960
  121DOPC   C2716617   0.419   7.702   2.383 -0.1300 -0.1941 -0.2174
  121DOPC   H7R16618   0.517   7.670   2.341  0.4356 -0.0561  0.9486
  121DOPC   H7S16619   0.378   7.634   2.461 -1.0418 -0.9841 -1.3549
  121DOPC   C2816620   0.465   7.840   2.443  0.0195  0.8725 -0.0964
  121DOPC   H8R16621   0.496   7.900   2.356  0.2872 -1.4241 -1.6706
  121DOPC   H8S16622   0.557   7.822   2.503  1.1399  2.0542 -1.3865
  121DOPC   C2916623   0.357   7.909   2.527  0.9095 -0.0805 -0.0725
  121DOPC   H9R16624   0.254   7.874   2.520  0.7338  0.6121 -1.2403
  121DOPC  C21016625   0.374   8.026   2.588 -0.1133 -0.1183  0.2313
  121DOPC  H10R16626   0.281   8.076   2.622  0.8004  2.0572 -0.3116
  121DOPC  C21116627   0.505   8.106   2.608 -0.7252 -0.5227  0.4077
  121DOPC  H11R16628   0.598   8.062   2.564  1.9817  1.9864  3.2233
  121DOPC  H11S16629   0.517   8.130   2.715  0.1830  0.8207  0.0377
  121DOPC  C21216630   0.494   8.241   2.546  0.1526  0.1638  0.4250
  121DOPC  H12R16631   0.591   8.286   2.576  0.5453 -1.6213  2.0602
  121DOPC  H12S16632   0.417   8.306   2.594 -0.3397  0.5143 -0.8032
  121DOPC  C21316633   0.477   8.249   2.393  0.5367  0.0328 -0.4999
  121DOPC  H13R16634   0.371   8.262   2.362  0.1385 -1.1012  0.3016
  121DOPC  H13S16635   0.522   8.156   2.353 -0.9547 -0.8576 -0.1766
  121DOPC  C21416636   0.555   8.363   2.333 -0.3925  0.0267  0.8123
  121DOPC  H14R16637   0.660   8.363   2.367  0.1749  0.0958 -0.8397
  121DOPC  H14S16638   0.509   8.458   2.369 -2.4779 -1.3769  2.1065
  121DOPC  C21516639   0.562   8.374   2.178 -0.2740  0.1203  0.1066
  121DOPC  H15R16640   0.599   8.476   2.153 -0.6951 -0.4519 -3.3635
  121DOPC  H15S16641   0.466   8.376   2.122  0.4654  0.8497 -1.2114
  121DOPC  C21616642   0.647   8.265   2.117 -0.4173  0.0647 -0.6237
  121DOPC  H16R16643   0.712   8.207   2.185 -0.9339 -1.9259 -1.7498
  121DOPC  H16S16644   0.722   8.305   2.045  0.0364  1.1117  0.3955
  121DOPC  C21716645   0.562   8.158   2.041  1.0849  0.9127 -0.1213
  121DOPC  H17R16646   0.490   8.208   1.972 -0.4890  0.9276  1.4573
  121DOPC  H17S16647   0.498   8.088   2.099  1.3678 -0.4766 -1.4087
  121DOPC  C21816648   0.658   8.067   1.969  0.8294  0.4993  0.0906
  121DOPC  H18R16649   0.611   7.968   1.951  0.4129 -0.4782  5.0062
  121DOPC  H18S16650   0.749   8.043   2.030  0.8122 -2.5733 -0.9151
  121DOPC  H18T16651   0.690   8.117   1.875 -1.1065  1.6027 -0.0243
  121DOPC   C3316652   0.160   8.101   1.836  0.0743 -0.1104  0.0267
  121DOPC   H3X16653   0.083   8.174   1.869 -1.5467 -1.6097 -0.2954
  121DOPC   H3Y16654   0.234   8.156   1.774 -1.0419  1.1179 -0.2675
  121DOPC   C3416655   0.226   8.024   1.954  0.1553  0.4517 -0.2471
  121DOPC   H4X16656   0.334   8.049   1.958  0.5591 -1.2253 -0.0938
  121DOPC   H4Y16657   0.220   7.914   1.950 -2.4547  0.4584  1.0098
  121DOPC   C3516658   0.178   8.069   2.092  1.2186 -0.1018 -0.8167
  121DOPC   H5X16659   0.198   8.177   2.107 -0.2105  0.0599  0.1676
  121DOPC   H5Y16660   0.233   8.010   2.168 -1.1651 -1.5545 -0.1157
  121DOPC   C3616661   0.028   8.055   2.115 -0.0004  0.2365 -0.3900
  121DOPC   H6X16662   8.506   8.131   2.058  1.1173  0.6418 -0.9825
  121DOPC   H6Y16663   8.532   7.954   2.080 -1.4997  0.3040  0.6249
  121DOPC   C3716664   8.526   8.070   2.270  0.3315  0.0720  0.3748
  121DOPC   H7X16665   8.433   8.014   2.289  1.6538 -2.0218  1.0057
  121DOPC   H7Y16666   0.072   8.025   2.330  1.4739 -2.5405 -2.8051
  121DOPC   C3816667   8.508   8.220   2.298  0.4428 -0.1489  0.0211
  121DOPC   H8X16668   8.449   8.275   2.221  1.9218  0.5984 -0.6199
  121DOPC   H8Y16669   0.081   8.245   2.289  1.0684 -2.1300  1.4320
  121DOPC   C3916670   8.458   8.259   2.435 -0.9290  0.2134  0.3523
  121DOPC   H9X16671   8.354   8.225   2.449 -0.7410 -1.2165 -1.3424
  121DOPC  C31016672   8.526   8.331   2.528  0.4822  0.1379  0.1093
  121DOPC  H10X16673   8.479   8.340   2.628  1.1440 -0.9206  0.5332
  121DOPC  C31116674   0.125   8.390   2.518 -0.1603  0.2975  0.0900
  121DOPC  H11X16675   0.154   8.419   2.415  0.7323 -1.3870 -0.1699
  121DOPC  H11Y16676   0.196   8.316   2.561 -0.4797  0.3696  0.7634
  121DOPC  C31216677   0.137   8.509   2.624 -0.2067 -0.0493 -0.1293
  121DOPC  H12X16678   0.050   0.041   2.608 -0.5423 -0.4974 -0.2107
  121DOPC  H12Y16679   0.233   0.022   2.596 -0.4111  0.1742 -0.4500
  121DOPC  C31316680   0.143   8.461   2.770 -0.0002 -0.1752 -0.1284
  121DOPC  H13X16681   0.055   8.400   2.800  1.3411 -2.8268 -1.2593
  121DOPC  H13Y16682   0.233   8.400   2.793  0.6333  0.8245  0.0876
  121DOPC  C31416683   0.154   0.044   2.874  0.2657 -1.1603  0.1157
  121DOPC  H14X16684   0.255   0.089   2.859  1.5099 -2.9827  2.3478
  121DOPC  H14Y16685   0.080   0.119   2.840  1.4333 -0.7031 -1.5891
  121DOPC  C31516686   0.149   8.521   3.018  0.2842  0.3066  0.1831
  121DOPC  H15X16687   0.235   8.451   3.014 -0.1847 -0.2503 -0.3280
  121DOPC  H15Y16688   0.062   8.454   3.037  0.5979 -0.0915  0.2171
  121DOPC  C31616689   0.165   0.090   3.133 -0.1641 -0.0002 -0.6024
  121DOPC  H16X16690   0.242   0.156   3.087 -0.2407 -1.1526 -2.4448
  121DOPC  H16Y16691   0.072   0.151   3.141 -0.4132 -0.2924 -1.2363
  121DOPC  C31716692   0.219   0.042   3.263  0.0665 -0.1275 -0.2929
  121DOPC  H17X16693   0.127   0.012   3.318  0.0202  2.2135  1.0038
  121DOPC  H17Y16694   0.290   8.492   3.251  0.8409  0.1698  1.7793
  121DOPC  C31816695   0.277   0.162   3.334  0.0468 -0.4038 -0.6870
  121DOPC  H18X16696   0.205   0.246   3.328 -1.2189 -1.4992 -1.3087
  121DOPC  H18Y16697   0.294   0.133   3.440  1.5176 -1.7350 -1.2562
  121DOPC  H18Z16698   0.367   0.197   3.280 -1.5026  2.1321 -1.8010
  122DOPC     N16699   4.383   1.482   1.248 -0.8230  0.2267 -0.0617
  122DOPC   C1216700   4.431   1.431   1.383 -0.3383 -0.8379 -0.0364
  122DOPC  H12A16701   4.538   1.419   1.385 -0.5373 -2.6511  1.1953
  122DOPC  H12B16702   4.390   1.332   1.397  0.5302 -1.3819 -1.2230
  122DOPC   C1316703   4.233   1.471   1.238  0.2135 -0.6149  0.3280
  122DOPC  H13A16704   4.178   1.540   1.299 -1.4504 -3.0522  1.7642
  122DOPC  H13B16705   4.201   1.496   1.138  0.2100 -0.2193  0.4272
  122DOPC  H13C16706   4.193   1.374   1.264 -1.8276 -0.2054 -1.0475
  122DOPC   C1416707   4.427   1.394   1.133  0.1222 -0.0050  0.1962
  122DOPC  H14A16708   4.393   1.291   1.140 -1.2102  0.3385 -0.9470
  122DOPC  H14B16709   4.399   1.443   1.042  0.2588  1.1495  0.7539
  122DOPC  H14C16710   4.535   1.400   1.134  0.3112 -0.5604 -3.4781
  122DOPC   C1516711   4.439   1.615   1.222 -0.2027  1.0680 -0.6198
  122DOPC  H15A16712   4.545   1.624   1.205 -0.5902  2.4878 -2.5773
  122DOPC  H15B16713   4.411   1.680   1.303 -1.0111  0.3458 -0.2989
  122DOPC  H15C16714   4.400   1.661   1.133 -1.1589 -2.4609 -2.2258
  122DOPC   C1116715   4.389   1.504   1.513  0.5911 -0.1934  0.8468
  122DOPC  H11A16716   4.279   1.485   1.516  0.6676 -1.1188 -0.8230
  122DOPC  H11B16717   4.434   1.449   1.598  0.3249 -0.0491  1.0795
  122DOPC     P16718   4.557   1.694   1.574  0.1470  0.6330  0.1388
  122DOPC   O1316719   4.576   1.841   1.551  0.6142  0.2815 -0.2331
  122DOPC   O1416720   4.660   1.602   1.529 -0.3755 -0.0678  0.2819
  122DOPC   O1216721   4.406   1.641   1.524 -0.5473  0.2293 -0.2624
  122DOPC   O1116722   4.529   1.663   1.733 -0.0924  0.2181  0.3935
  122DOPC    C116723   4.414   1.719   1.796 -0.3556  0.1257  0.1611
  122DOPC    HA16724   4.368   1.801   1.738  1.4492  2.5404  1.9112
  122DOPC    HB16725   4.435   1.755   1.899 -0.1072  0.9976 -0.1892
  122DOPC    C216726   4.305   1.616   1.826  0.4701  0.0221  0.7182
  122DOPC    HS16727   4.274   1.592   1.722  2.1909 -0.1086  0.2034
  122DOPC   O2116728   4.210   1.681   1.908 -0.1179  0.2523 -0.2478
  122DOPC   C2116729   4.092   1.614   1.923  0.0241  0.9782 -0.3250
  122DOPC   O2216730   4.067   1.511   1.860  0.2097  0.3451  0.0596
  122DOPC   C2216731   3.993   1.679   2.022  0.3110  0.0269  0.1000
  122DOPC   H2R16732   3.962   1.781   1.988  1.6339  0.6316  0.6479
  122DOPC   H2S16733   4.059   1.691   2.111  1.1867  0.6212 -0.6146
  122DOPC    C316734   4.368   1.493   1.890  0.2817  0.3227  0.2358
  122DOPC    HX16735   4.447   1.455   1.822 -0.2330  0.9647 -0.7428
  122DOPC    HY16736   4.291   1.415   1.909  0.1213  0.4378  0.0612
  122DOPC   O3116737   4.439   1.529   2.012  0.6274 -0.6608 -0.0867
  122DOPC   C3116738   4.376   1.530   2.126 -0.1621  0.4625  0.6677
  122DOPC   O3216739   4.283   1.458   2.152  0.5196  0.0968 -0.8222
  122DOPC   C3216740   4.443   1.626   2.226  0.7076 -0.1611  0.0771
  122DOPC   H2X16741   4.525   1.559   2.262 -0.0881 -1.6945 -0.8620
  122DOPC   H2Y16742   4.473   1.722   2.179 -0.8601  0.2768 -0.0853
  122DOPC   C2316743   3.876   1.583   2.052  0.0116  0.1188 -0.2858
  122DOPC   H3R16744   3.906   1.477   2.040 -0.4449 -0.1423  0.7510
  122DOPC   H3S16745   3.807   1.599   1.967  1.0823 -1.9075 -1.6208
  122DOPC   C2416746   3.809   1.592   2.192  0.4789 -0.0242 -0.0490
  122DOPC   H4R16747   3.717   1.530   2.188  0.5969 -0.2032 -3.5907
  122DOPC   H4S16748   3.772   1.697   2.199 -0.1834 -0.3129  1.0236
  122DOPC   C2516749   3.900   1.569   2.315  0.6822 -0.7801 -1.3175
  122DOPC   H5R16750   3.970   1.655   2.312 -0.9348  0.6613 -0.0472
  122DOPC   H5S16751   3.957   1.474   2.324  1.0836 -0.3945  0.6802
  122DOPC   C2616752   3.832   1.584   2.446  0.6332 -0.1572  0.8242
  122DOPC   H6R16753   3.761   1.669   2.435  2.6256  1.3569 -1.3026
  122DOPC   H6S16754   3.911   1.619   2.516  1.1318  1.4542 -0.4838
  122DOPC   C2716755   3.773   1.457   2.510  0.2060 -0.2966  0.8281
  122DOPC   H7R16756   3.775   1.478   2.619  0.2893  2.2946  0.4032
  122DOPC   H7S16757   3.837   1.368   2.493  0.6521 -0.1136  1.5037
  122DOPC   C2816758   3.629   1.430   2.465 -0.4192  1.1202 -0.2685
  122DOPC   H8R16759   3.629   1.429   2.354 -0.5618 -3.4355 -0.4001
  122DOPC   H8S16760   3.562   1.517   2.479 -0.9823  0.7290 -0.4759
  122DOPC   C2916761   3.574   1.299   2.520  0.4628  0.0580  0.1473
  122DOPC   H9R16762   3.550   1.212   2.457 -0.7982 -1.4238  2.5146
  122DOPC  C21016763   3.522   1.294   2.646 -0.5205  0.0739  0.3458
  122DOPC  H10R16764   3.480   1.196   2.674  0.8822 -0.1988  1.6077
  122DOPC  C21116765   3.521   1.407   2.753 -0.0133  0.4910  0.3954
  122DOPC  H11R16766   3.592   1.484   2.717  0.6033 -0.3938 -0.3379
  122DOPC  H11S16767   3.550   1.371   2.854 -0.5328 -2.2526 -0.3395
  122DOPC  C21216768   3.381   1.475   2.768 -0.1469 -0.3824  0.5230
  122DOPC  H12R16769   3.401   1.551   2.847  3.2305 -0.2873 -0.2341
  122DOPC  H12S16770   3.311   1.401   2.811 -1.1605 -0.3919 -1.0702
  122DOPC  C21316771   3.325   1.535   2.643  0.3290  0.2643  0.1584
  122DOPC  H13R16772   3.327   1.459   2.563  1.8688 -0.9749  1.3139
  122DOPC  H13S16773   3.374   1.624   2.598 -2.5146  0.3033 -3.3406
  122DOPC  C21416774   3.176   1.555   2.669 -0.3312  0.1715 -0.6302
  122DOPC  H14R16775   3.163   1.620   2.758  2.0313 -1.5748  1.1114
  122DOPC  H14S16776   3.136   1.460   2.710  0.1462  0.2732  0.0884
  122DOPC  C21516777   3.113   1.603   2.548 -0.0308 -0.1748 -0.5016
  122DOPC  H15R16778   3.155   1.549   2.460 -1.2440 -0.6077 -0.8312
  122DOPC  H15S16779   3.137   1.711   2.540 -1.0360  0.0550 -0.5300
  122DOPC  C21616780   2.964   1.593   2.540  0.2246 -0.6036 -0.4138
  122DOPC  H16R16781   2.918   1.656   2.619 -0.5772 -1.0262 -0.5348
  122DOPC  H16S16782   2.928   1.489   2.553  0.8172 -0.4335  3.9989
  122DOPC  C21716783   2.913   1.647   2.403 -1.1213 -0.3628  0.4338
  122DOPC  H17R16784   2.983   1.596   2.333  0.6476  3.1664 -0.5651
  122DOPC  H17S16785   2.914   1.758   2.407 -2.0977 -0.3866  1.9286
  122DOPC  C21816786   2.771   1.606   2.371 -0.1192 -0.0731  0.7463
  122DOPC  H18R16787   2.737   1.652   2.276 -0.1769 -2.0784 -0.2734
  122DOPC  H18S16788   2.713   1.650   2.455  1.8815  1.6724  1.2964
  122DOPC  H18T16789   2.763   1.495   2.369  2.5737 -0.3217 -0.2479
  122DOPC   C3316790   4.342   1.643   2.338  0.2503  0.0502  0.1294
  122DOPC   H3X16791   4.313   1.543   2.378 -0.0209  0.3303  0.6424
  122DOPC   H3Y16792   4.250   1.683   2.290 -0.6389 -0.5629  1.2578
  122DOPC   C3416793   4.387   1.746   2.444 -0.9104  0.5919  0.0294
  122DOPC   H4X16794   4.436   1.830   2.391  2.2977 -1.2491 -0.1374
  122DOPC   H4Y16795   4.463   1.695   2.506 -1.4940 -2.0344 -1.2647
  122DOPC   C3516796   4.264   1.782   2.539 -0.4345 -0.2275 -0.6424
  122DOPC   H5X16797   4.189   1.835   2.476 -1.6452 -0.0187  0.9091
  122DOPC   H5Y16798   4.295   1.865   2.605 -1.6529  0.0805 -0.4298
  122DOPC   C3616799   4.196   1.668   2.620 -0.0829  0.4175  0.2640
  122DOPC   H6X16800   4.120   1.724   2.678  1.9490  1.3606  2.1816
  122DOPC   H6Y16801   4.155   1.590   2.552 -1.6991  1.6541 -0.2348
  122DOPC   C3716802   4.291   1.596   2.725  0.0622  0.3081 -0.0934
  122DOPC   H7X16803   4.229   1.519   2.778  0.3656 -0.6928 -1.1485
  122DOPC   H7Y16804   4.371   1.541   2.671  1.8690  1.5788  1.1559
  122DOPC   C3816805   4.357   1.688   2.831 -0.3934 -0.8766  0.4202
  122DOPC   H8X16806   4.408   1.775   2.784  1.8093 -1.0974  2.2453
  122DOPC   H8Y16807   4.443   1.632   2.873 -0.6708 -1.7077 -0.0907
  122DOPC   C3916808   4.257   1.730   2.945 -0.6260  0.0340 -0.2345
  122DOPC   H9X16809   4.191   1.814   2.918  0.3057  0.7899 -0.2285
  122DOPC  C31016810   4.236   1.670   3.061  0.0106 -0.6298  0.3318
  122DOPC  H10X16811   4.156   1.712   3.123 -1.0382 -0.3931 -1.1272
  122DOPC  C31116812   4.325   1.555   3.107 -0.6657  0.1178  0.5092
  122DOPC  H11X16813   4.331   1.561   3.218 -3.4816  1.3102  0.6839
  122DOPC  H11Y16814   4.431   1.552   3.075  0.1519 -0.2663  3.0604
  122DOPC  C31216815   4.254   1.420   3.084  0.4873  0.2389 -0.8504
  122DOPC  H12X16816   4.248   1.393   2.976  2.6196  1.1219 -1.2476
  122DOPC  H12Y16817   4.147   1.430   3.113  0.4733  0.6786 -1.0531
  122DOPC  C31316818   4.312   1.298   3.157 -0.4713 -0.1044 -0.2884
  122DOPC  H13X16819   4.419   1.291   3.127 -0.8226  0.7810 -1.8634
  122DOPC  H13Y16820   4.305   1.308   3.267 -1.1189 -1.5335 -0.1739
  122DOPC  C31416821   4.241   1.168   3.118 -0.0974  0.5129  0.0058
  122DOPC  H14X16822   4.130   1.178   3.121 -0.1132  0.6727 -0.7827
  122DOPC  H14Y16823   4.263   1.150   3.011  0.0780  1.6403 -0.1564
  122DOPC  C31516824   4.279   1.032   3.176  0.4322 -0.8604  0.4580
  122DOPC  H15X16825   4.280   1.034   3.287 -0.9680 -1.4456  0.5009
  122DOPC  H15Y16826   4.385   1.021   3.143 -0.7038 -1.6638 -3.4342
  122DOPC  C31616827   4.181   0.925   3.132  0.2403 -0.1024  0.0184
  122DOPC  H16X16828   4.074   0.953   3.121  0.3196 -0.5320 -2.0906
  122DOPC  H16Y16829   4.186   0.890   3.027  0.4605 -0.4649  0.1466
  122DOPC  C31716830   4.195   0.809   3.238  0.4648  0.1537  0.2883
  122DOPC  H17X16831   4.196   0.842   3.344  0.4287  2.9742 -0.5080
  122DOPC  H17Y16832   4.099   0.753   3.225  1.2956 -1.4278  0.6674
  122DOPC  C31816833   4.322   0.724   3.208  0.8715 -0.3400  0.8293
  122DOPC  H18X16834   4.299   0.621   3.243 -1.5644 -0.4646 -0.8883
  122DOPC  H18Y16835   4.320   0.709   3.098  0.3221 -1.7024  1.0033
  122DOPC  H18Z16836   4.415   0.779   3.235 -0.9596  2.5959  1.6889
  123DOPC     N16837   3.640   0.297   0.890  0.6466  0.2534  0.1709
  123DOPC   C1216838   3.647   0.378   1.015 -1.1806  0.1379 -0.2515
  123DOPC  H12A16839   3.570   0.454   1.007 -1.1271  0.1802 -0.3618
  123DOPC  H12B16840   3.747   0.415   1.003 -0.4701 -2.3366 -3.1054
  123DOPC   C1316841   3.688   0.375   0.764  0.4487 -0.2853  0.0110
  123DOPC  H13A16842   3.612   0.451   0.750  0.2516 -0.1466  1.6631
  123DOPC  H13B16843   3.783   0.422   0.781  0.1433  0.5422 -0.5316
  123DOPC  H13C16844   3.701   0.314   0.676 -0.5630 -2.4233  1.2345
  123DOPC   C1416845   3.501   0.247   0.866  0.1306 -0.6357  0.3367
  123DOPC  H14A16846   3.431   0.324   0.839  0.6948 -0.1644  0.1960
  123DOPC  H14B16847   3.484   0.176   0.786  0.0306 -0.2807  0.0421
  123DOPC  H14C16848   3.459   0.187   0.946 -0.9555  0.0682  0.3215
  123DOPC   C1516849   3.723   0.174   0.907  0.1919 -0.2499 -0.2968
  123DOPC  H15A16850   3.694   0.112   0.991 -0.3011  0.1165 -0.1951
  123DOPC  H15B16851   3.826   0.200   0.921  0.3973 -0.8245 -0.6951
  123DOPC  H15C16852   3.723   0.118   0.814 -1.5312 -1.5548  0.4167
  123DOPC   C1116853   3.628   0.303   1.151 -0.2879 -0.5503  1.2268
  123DOPC  H11A16854   3.692   0.214   1.165  0.8227  0.4862  3.2983
  123DOPC  H11B16855   3.659   0.369   1.235  0.9371  0.6342 -0.0849
  123DOPC     P16856   3.396   0.368   1.227  0.1512 -0.0312 -0.1496
  123DOPC   O1316857   3.261   0.350   1.174  0.4185 -0.0613  0.4697
  123DOPC   O1416858   3.449   0.503   1.205 -0.1294  0.0254  0.1590
  123DOPC   O1216859   3.490   0.268   1.158  0.2772  0.0431  0.0531
  123DOPC   O1116860   3.389   0.334   1.380  0.4025 -0.5328  0.2851
  123DOPC    C116861   3.265   0.285   1.434 -0.2317  0.3035  0.0267
  123DOPC    HA16862   3.232   0.186   1.396  2.1776 -0.7800  0.5977
  123DOPC    HB16863   3.185   0.354   1.400  0.8554  2.2555  1.2276
  123DOPC    C216864   3.268   0.290   1.583 -0.0567  0.1976  0.4160
  123DOPC    HS16865   3.163   0.305   1.616 -0.8726 -0.3555 -1.7798
  123DOPC   O2116866   3.359   0.390   1.623 -0.3101 -0.0093 -0.7360
  123DOPC   C2116867   3.304   0.515   1.645  0.3768  0.7262 -0.2830
  123DOPC   O2216868   3.185   0.538   1.624  0.4643  0.5665 -0.1027
  123DOPC   C2216869   3.418   0.611   1.680 -0.2379  0.0539 -0.3997
  123DOPC   H2R16870   3.382   0.682   1.757  2.1642  0.2201  0.6552
  123DOPC   H2S16871   3.436   0.670   1.587 -3.0281  0.6832 -0.6229
  123DOPC    C316872   3.311   0.153   1.636  0.2647  0.3594 -0.6076
  123DOPC    HX16873   3.395   0.112   1.575 -0.6891  1.5203 -2.8155
  123DOPC    HY16874   3.226   0.083   1.624 -1.2093  1.9858 -0.0251
  123DOPC   O3116875   3.352   0.165   1.771 -0.4741  0.0161  0.6157
  123DOPC   C3116876   3.373   0.053   1.835  0.4397  0.0125 -0.4573
  123DOPC   O3216877   3.349   8.473   1.796 -0.2519 -0.8311  0.5236
  123DOPC   C3216878   3.391   0.087   1.983 -0.1824 -0.5842 -1.0789
  123DOPC   H2X16879   3.309   0.158   2.008  1.0196  0.6670 -0.5344
  123DOPC   H2Y16880   3.351   8.530   2.029 -3.0254 -0.2976 -2.7527
  123DOPC   C2316881   3.554   0.555   1.727 -0.5100  0.7672 -0.8008
  123DOPC   H3R16882   3.639   0.624   1.707  1.0456 -1.1940 -1.2324
  123DOPC   H3S16883   3.571   0.458   1.676  0.4366  0.4050  0.1623
  123DOPC   C2416884   3.550   0.523   1.882  0.0958  0.0689  0.2621
  123DOPC   H4R16885   3.629   0.449   1.905 -0.8278 -1.3262 -0.8736
  123DOPC   H4S16886   3.451   0.474   1.897  0.8302 -1.4027  0.3832
  123DOPC   C2516887   3.552   0.641   1.983  0.7236  0.4317 -0.4332
  123DOPC   H5R16888   3.465   0.710   1.972  0.1366 -0.2373 -0.0612
  123DOPC   H5S16889   3.644   0.699   1.960  0.6434  0.5641 -0.4196
  123DOPC   C2616890   3.552   0.597   2.130  0.3494 -0.5111  0.6480
  123DOPC   H6R16891   3.618   0.508   2.142  3.6248  1.6715  0.1707
  123DOPC   H6S16892   3.449   0.572   2.164 -0.1807  0.7687  0.0274
  123DOPC   C2716893   3.608   0.699   2.229 -0.2343  0.3134 -0.1461
  123DOPC   H7R16894   3.560   0.796   2.204  1.6347  0.7933 -2.1442
  123DOPC   H7S16895   3.718   0.701   2.213 -0.4595 -0.6010 -2.0915
  123DOPC   C2816896   3.581   0.657   2.379 -0.3615  0.2180  0.4066
  123DOPC   H8R16897   3.577   0.547   2.371  1.7339  0.2654 -3.1555
  123DOPC   H8S16898   3.479   0.696   2.401 -1.7139 -2.4750 -0.7075
  123DOPC   C2916899   3.671   0.714   2.482  0.0071  0.4780  0.0388
  123DOPC   H9R16900   3.767   0.659   2.482  0.2245  0.8465  1.1772
  123DOPC  C21016901   3.658   0.810   2.575 -0.3617 -0.1143 -0.2884
  123DOPC  H10R16902   3.746   0.829   2.639 -0.6164 -2.4943  0.8853
  123DOPC  C21116903   3.535   0.901   2.603  0.0469  0.1840  0.4223
  123DOPC  H11R16904   3.468   0.891   2.515 -2.3638  0.6510  2.1291
  123DOPC  H11S16905   3.569   1.006   2.616 -0.4814  0.4923 -0.5681
  123DOPC  C21216906   3.453   0.874   2.729 -0.0229  0.5981  0.3458
  123DOPC  H12R16907   3.442   0.764   2.727  3.3073  0.1875 -0.4101
  123DOPC  H12S16908   3.355   0.928   2.730  1.3311  3.2655 -1.1999
  123DOPC  C21316909   3.531   0.895   2.855 -0.6839  0.4363 -0.6649
  123DOPC  H13R16910   3.563   1.002   2.863  0.0364  0.0961  1.9869
  123DOPC  H13S16911   3.623   0.833   2.861 -0.1252  1.3964  1.7262
  123DOPC  C21416912   3.452   0.873   2.986 -0.0745  0.0085 -0.2381
  123DOPC  H14R16913   3.518   0.887   3.075 -1.0753 -0.8072  0.6505
  123DOPC  H14S16914   3.408   0.771   2.983  0.5606 -0.2692 -0.3475
  123DOPC  C21516915   3.334   0.973   2.993 -0.6310  0.1387 -0.7846
  123DOPC  H15R16916   3.254   0.943   2.922 -1.6358  0.0399  0.3513
  123DOPC  H15S16917   3.368   1.075   2.967 -1.6813  0.5252 -0.6763
  123DOPC  C21616918   3.276   0.995   3.139  0.9388  1.0379  1.2787
  123DOPC  H16R16919   3.222   0.902   3.167  1.0401  0.7551  0.5458
  123DOPC  H16S16920   3.200   1.077   3.141 -2.9565 -2.2521  1.4829
  123DOPC  C21716921   3.377   1.021   3.252  0.1127  0.2438 -0.7350
  123DOPC  H17R16922   3.460   1.088   3.220  0.0861  0.1513 -1.0022
  123DOPC  H17S16923   3.423   0.923   3.280  0.3475  1.3613  3.4034
  123DOPC  C21816924   3.321   1.084   3.382  0.1714 -0.0556  0.3781
  123DOPC  H18R16925   3.398   1.084   3.463 -0.3728 -0.4366  0.9093
  123DOPC  H18S16926   3.239   1.020   3.422 -1.9394  1.5035 -1.2786
  123DOPC  H18T16927   3.278   1.182   3.355 -0.9957 -0.0741  1.9895
  123DOPC   C3316928   3.529   0.141   2.023 -0.0786 -0.1820  0.2341
  123DOPC   H3X16929   3.546   0.241   1.977 -2.0890  0.6283  1.1239
  123DOPC   H3Y16930   3.605   0.067   1.991  0.7500  0.6450  0.2319
  123DOPC   C3416931   3.527   0.159   2.175  0.5797  1.1667  0.0578
  123DOPC   H4X16932   3.507   0.065   2.230  1.0870  0.9656 -0.0946
  123DOPC   H4Y16933   3.433   0.215   2.195 -0.2682 -0.1500 -0.0935
  123DOPC   C3516934   3.644   0.228   2.242  0.7207  0.0241 -0.1015
  123DOPC   H5X16935   3.647   0.335   2.210  0.7751  0.5569  1.5703
  123DOPC   H5Y16936   3.736   0.176   2.208  1.2570  1.3965 -0.8621
  123DOPC   C3616937   3.625   0.229   2.392  0.0432 -0.5691  0.1662
  123DOPC   H6X16938   3.526   0.275   2.411 -0.6317 -0.8676 -2.3383
  123DOPC   H6Y16939   3.610   0.127   2.433 -2.1520 -1.0081 -1.5722
  123DOPC   C3716940   3.736   0.297   2.470  0.2610  0.0433 -0.1554
  123DOPC   H7X16941   3.833   0.244   2.463  0.5798  0.8166 -2.6822
  123DOPC   H7Y16942   3.768   0.396   2.433  0.3690 -0.0209 -0.2337
  123DOPC   C3816943   3.713   0.310   2.620  0.2530  0.4529 -0.3649
  123DOPC   H8X16944   3.785   0.382   2.663  2.0264 -2.0030  1.0758
  123DOPC   H8Y16945   3.732   0.208   2.661  1.2694 -0.1371 -2.1971
  123DOPC   C3916946   3.567   0.348   2.655 -0.2698 -0.0611 -0.3026
  123DOPC   H9X16947   3.526   0.434   2.601 -0.1643 -0.1476 -0.5200
  123DOPC  C31016948   3.488   0.298   2.756 -0.6792  0.0357  0.3254
  123DOPC  H10X16949   3.388   0.341   2.745  0.3283  2.0983 -1.8182
  123DOPC  C31116950   3.524   0.182   2.850 -0.0013 -0.0496  0.7378
  123DOPC  H11X16951   3.448   0.194   2.930 -0.8988  0.9391 -0.2118
  123DOPC  H11Y16952   3.623   0.197   2.898 -0.1678 -2.1430  1.8385
  123DOPC  C31216953   3.527   0.046   2.785  0.0477 -0.0528 -0.3636
  123DOPC  H12X16954   3.605   0.043   2.706  0.2695 -0.3492 -0.1361
  123DOPC  H12Y16955   3.427   0.026   2.739 -0.1493 -0.9305  0.3988
  123DOPC  C31316956   3.566   8.470   2.891  0.7035  0.4400  0.0353
  123DOPC  H13X16957   3.616   8.388   2.835 -1.0120 -0.7745  0.1873
  123DOPC  H13Y16958   3.637   8.517   2.962  0.9709  1.4242 -0.8617
  123DOPC  C31416959   3.449   8.390   2.953 -0.1996 -0.3577 -0.6510
  123DOPC  H14X16960   3.371   8.456   2.998 -1.7891 -2.6882  0.1904
  123DOPC  H14Y16961   3.395   8.338   2.871  2.7479 -1.7377 -1.8519
  123DOPC  C31516962   3.507   8.290   3.054  0.2796 -0.4298 -0.4079
  123DOPC  H15X16963   3.597   8.240   3.013 -1.0946 -3.2106 -0.2276
  123DOPC  H15Y16964   3.426   8.221   3.087 -1.7425  2.8256  2.1301
  123DOPC  C31616965   3.550   8.358   3.189 -0.1418  0.2864 -0.0463
  123DOPC  H16X16966   3.638   8.421   3.166  1.2559 -0.8707  1.8073
  123DOPC  H16Y16967   3.477   8.426   3.237  0.5697  0.8129  0.3116
  123DOPC  C31716968   3.602   8.257   3.288 -0.5147 -0.0297  0.2982
  123DOPC  H17X16969   3.591   8.297   3.391 -1.7180  2.7109 -0.7931
  123DOPC  H17Y16970   3.530   8.173   3.281 -1.2330  0.6158 -0.2348
  123DOPC  C31816971   3.746   8.217   3.258  0.1347  0.5470 -0.1822
  123DOPC  H18X16972   3.796   8.159   3.338 -0.5187 -0.2147 -0.3141
  123DOPC  H18Y16973   3.743   8.151   3.169  1.0229  0.8094 -0.4102
  123DOPC  H18Z16974   3.800   8.305   3.217  0.2908  0.3684 -0.3566
  124DOPC     N16975   5.943   4.837   1.161 -0.6944 -0.2420  0.4837
  124DOPC   C1216976   5.873   4.915   1.276 -0.4432  0.0714  0.0409
  124DOPC  H12A16977   5.767   4.895   1.283 -0.1033 -1.5755  1.1401
  124DOPC  H12B16978   5.893   5.020   1.273  0.5173 -0.0424  1.4592
  124DOPC   C1316979   5.931   4.690   1.173 -0.7124  0.4235 -0.4055
  124DOPC  H13A16980   5.830   4.666   1.204 -1.1089  1.1402 -1.0938
  124DOPC  H13B16981   5.950   4.638   1.081 -0.4704  1.0603 -0.7204
  124DOPC  H13C16982   6.007   4.659   1.243  0.2994  1.7130 -0.8948
  124DOPC   C1416983   6.091   4.868   1.143 -0.2301 -0.1997  0.2746
  124DOPC  H14A16984   6.104   4.973   1.122 -0.9615  0.1809  1.6552
  124DOPC  H14B16985   6.159   4.846   1.224  3.8298  1.9113 -2.2083
  124DOPC  H14C16986   6.129   4.826   1.051  0.1501 -1.9457  1.1905
  124DOPC   C1516987   5.871   4.872   1.036 -0.5658 -0.5880  0.3448
  124DOPC  H15A16988   5.767   4.845   1.040 -0.5726 -0.8365 -1.1100
  124DOPC  H15B16989   5.917   4.831   0.948  1.1900 -1.0838  1.4363
  124DOPC  H15C16990   5.877   4.980   1.028  1.1069 -0.4086  2.8407
  124DOPC   C1116991   5.915   4.882   1.428  0.2291 -0.4919  0.6251
  124DOPC  H11A16992   6.025   4.887   1.439  0.0523  1.9615  2.0567
  124DOPC  H11B16993   5.882   4.962   1.498  0.9767  1.2351 -0.8994
  124DOPC     P16994   5.706   4.743   1.498 -0.0632  0.2440 -0.2380
  124DOPC   O1316995   5.668   4.599   1.471 -0.4250  0.1577 -0.1269
  124DOPC   O1416996   5.624   4.846   1.431 -0.3307 -0.0270  0.3566
  124DOPC   O1216997   5.859   4.755   1.463  0.4562 -0.3987  0.1536
  124DOPC   O1116998   5.707   4.769   1.658 -0.5017  0.1413 -0.3498
  124DOPC    C116999   5.788   4.684   1.743  0.1275 -0.3988 -0.6102
  124DOPC    HA17000   5.870   4.635   1.686  0.4857  0.3186 -0.7109
  124DOPC    HB17001   5.729   4.600   1.786 -0.2434  1.0776  1.9610
  124DOPC    C217002   5.839   4.773   1.856 -0.2712  0.6555  0.4483
  124DOPC    HS17003   5.910   4.712   1.917 -1.7000 -1.7145 -0.1548
  124DOPC   O2117004   5.729   4.824   1.937  0.3517  0.1691  0.6349
  124DOPC   C2117005   5.707   4.753   2.047  0.1350  0.6943 -0.2473
  124DOPC   O2217006   5.755   4.643   2.071 -0.0474 -0.8894  0.0669
  124DOPC   C2217007   5.619   4.833   2.142 -0.3388  0.2397 -0.2395
  124DOPC   H2R17008   5.537   4.761   2.160 -1.4585  1.2250 -1.2752
  124DOPC   H2S17009   5.580   4.931   2.109 -0.5936 -0.3732 -1.8522
  124DOPC    C317010   5.923   4.885   1.787  0.3158 -0.2416  0.2323
  124DOPC    HX17011   5.855   4.947   1.725 -0.5289 -1.1559  0.2184
  124DOPC    HY17012   5.987   4.839   1.708  1.5871  0.4084  0.8623
  124DOPC   O3117013   6.000   4.965   1.876 -0.2035 -0.5004 -0.2861
  124DOPC   C3117014   5.930   5.044   1.947 -0.2952 -0.5411  0.0784
  124DOPC   O3217015   5.812   5.065   1.945 -0.1775 -0.4559 -0.4668
  124DOPC   C3217016   6.026   5.130   2.026  0.1553  0.6061 -0.0786
  124DOPC   H2X17017   6.101   5.070   2.083 -0.8516  1.2309  1.9988
  124DOPC   H2Y17018   6.084   5.198   1.960  0.4171 -2.1134 -2.9119
  124DOPC   C2317019   5.715   4.862   2.262  0.1766  0.2022 -0.4659
  124DOPC   H3R17020   5.814   4.896   2.227  0.4987 -1.4352 -1.2490
  124DOPC   H3S17021   5.746   4.765   2.306  2.3883  0.5806 -1.0676
  124DOPC   C2417022   5.662   4.963   2.372 -0.6009 -0.0392  0.2154
  124DOPC   H4R17023   5.553   4.947   2.384 -0.7531  0.8174  0.0834
  124DOPC   H4S17024   5.675   5.064   2.327 -3.4982 -0.0579 -0.8504
  124DOPC   C2517025   5.740   4.953   2.505  0.1794  0.2217  0.0398
  124DOPC   H5R17026   5.847   4.940   2.478  0.0115  0.3673 -0.7028
  124DOPC   H5S17027   5.716   4.862   2.564 -0.8705  1.2377  1.2532
  124DOPC   C2617028   5.725   5.080   2.588  1.3260  0.2542  0.6728
  124DOPC   H6R17029   5.618   5.106   2.605  1.3240  0.9282 -0.3049
  124DOPC   H6S17030   5.762   5.169   2.534  0.5021  0.3125  0.1834
  124DOPC   C2717031   5.792   5.071   2.723 -0.0397 -0.2685 -0.9228
  124DOPC   H7R17032   5.898   5.065   2.693 -0.0695 -1.5004 -0.8254
  124DOPC   H7S17033   5.783   4.969   2.768  2.1867 -0.6301 -1.2094
  124DOPC   C2817034   5.769   5.180   2.825 -0.1148 -0.9298 -0.0782
  124DOPC   H8R17035   5.808   5.270   2.772 -0.0598 -0.8819  0.0433
  124DOPC   H8S17036   5.836   5.169   2.913  1.1707  1.0715 -0.7326
  124DOPC   C2917037   5.629   5.185   2.868  0.0693  0.1622  0.1747
  124DOPC   H9R17038   5.592   5.093   2.915  0.4736  0.6921  1.5783
  124DOPC  C21017039   5.545   5.292   2.858 -0.0217 -0.6109  0.3850
  124DOPC  H10R17040   5.441   5.278   2.893  0.0985 -0.3926  0.8369
  124DOPC  C21117041   5.586   5.425   2.788  0.1632  0.0439  0.0629
  124DOPC  H11R17042   5.688   5.422   2.745 -0.3050 -1.8679 -1.0477
  124DOPC  H11S17043   5.584   5.507   2.863 -0.7826 -0.7702  0.9701
  124DOPC  C21217044   5.486   5.463   2.682  0.2544 -0.9670 -0.6149
  124DOPC  H12R17045   5.514   5.562   2.641 -1.6408  0.3245  1.0049
  124DOPC  H12S17046   5.389   5.473   2.736  1.0625 -1.2841  0.9530
  124DOPC  C21317047   5.468   5.378   2.561  0.1714  0.2474 -0.2086
  124DOPC  H13R17048   5.446   5.277   2.603  0.5191  0.9443  1.7396
  124DOPC  H13S17049   5.565   5.374   2.508  0.7135  0.0599  0.7731
  124DOPC  C21417050   5.358   5.427   2.465  0.2070 -0.6272 -0.7263
  124DOPC  H14R17051   5.398   5.515   2.409  2.9782 -2.5748 -2.0141
  124DOPC  H14S17052   5.267   5.455   2.522  0.1180 -0.3889 -0.9804
  124DOPC  C21517053   5.317   5.318   2.368 -0.2546 -0.1262 -0.6546
  124DOPC  H15R17054   5.238   5.360   2.303 -0.7811 -0.0175  0.0508
  124DOPC  H15S17055   5.269   5.238   2.428  1.7650 -1.5739 -0.8455
  124DOPC  C21617056   5.434   5.267   2.279 -0.0777 -0.2147 -0.7143
  124DOPC  H16R17057   5.518   5.226   2.338 -1.4757 -1.9013  0.2093
  124DOPC  H16S17058   5.462   5.361   2.228  0.5229 -0.3093 -0.5592
  124DOPC  C21717059   5.398   5.161   2.175  0.8589 -0.9094  0.3498
  124DOPC  H17R17060   5.289   5.159   2.153  0.5724 -1.0851  1.7330
  124DOPC  H17S17061   5.419   5.061   2.219 -1.0841 -0.9867  1.1703
  124DOPC  C21817062   5.471   5.188   2.046 -0.3208 -0.1703  0.4200
  124DOPC  H18R17063   5.456   5.294   2.014  0.7339 -0.8416 -2.7108
  124DOPC  H18S17064   5.424   5.113   1.978 -0.0361  0.2370 -0.2362
  124DOPC  H18T17065   5.580   5.173   2.058 -0.3335 -0.1697  0.5292
  124DOPC   C3317066   5.936   5.210   2.121  0.4481 -0.0416 -0.2824
  124DOPC   H3X17067   5.871   5.137   2.173  0.2973  1.1683  1.3205
  124DOPC   H3Y17068   5.875   5.285   2.065  0.6659  0.1572 -0.2580
  124DOPC   C3417069   6.025   5.282   2.237  0.0525  0.2312  0.3625
  124DOPC   H4X17070   6.092   5.354   2.184 -2.3786  0.1906 -3.1049
  124DOPC   H4Y17071   6.080   5.205   2.295 -0.6814 -1.0026 -0.5506
  124DOPC   C3517072   5.948   5.369   2.339 -0.1319  0.6849  0.4792
  124DOPC   H5X17073   5.890   5.311   2.414 -0.5203 -3.3822 -2.6391
  124DOPC   H5Y17074   5.867   5.409   2.274 -1.6722 -1.5474  0.8881
  124DOPC   C3617075   6.038   5.461   2.412  0.4196 -1.1209  0.3024
  124DOPC   H6X17076   6.100   5.400   2.481  0.6676 -1.5776 -0.3134
  124DOPC   H6Y17077   6.101   5.530   2.352 -0.4371  0.0085  0.6709
  124DOPC   C3717078   5.951   5.555   2.502  0.0919  0.3320 -0.3588
  124DOPC   H7X17079   5.890   5.627   2.444 -1.7996 -0.4466  0.5961
  124DOPC   H7Y17080   5.874   5.491   2.548 -0.3927  1.1551  0.0001
  124DOPC   C3817081   6.027   5.626   2.617 -0.1608  0.6251 -0.5920
  124DOPC   H8X17082   6.116   5.671   2.569  1.5395 -1.4412  0.4377
  124DOPC   H8Y17083   6.073   5.555   2.690 -1.5998  0.9990  0.7477
  124DOPC   C3917084   5.948   5.724   2.689 -0.7614  0.3990 -0.4427
  124DOPC   H9X17085   5.940   5.808   2.619 -0.4044  2.0306  1.3960
  124DOPC  C31017086   5.901   5.737   2.816  0.3147  0.3997 -0.2361
  124DOPC  H10X17087   5.833   5.819   2.842 -0.5732 -1.6729  5.3545
  124DOPC  C31117088   5.923   5.636   2.930  0.0712  0.0603 -0.3321
  124DOPC  H11X17089   5.974   5.549   2.883 -0.5495  0.1535 -1.2028
  124DOPC  H11Y17090   5.833   5.602   2.986 -0.5496  1.6928 -0.2880
  124DOPC  C31217091   6.027   5.693   3.025  0.8120  0.0688  0.4034
  124DOPC  H12X17092   6.126   5.720   2.984  0.9772 -1.0239  0.0346
  124DOPC  H12Y17093   6.020   5.614   3.103 -0.8482 -1.2056 -0.9696
  124DOPC  C31317094   5.965   5.820   3.093  0.3360 -0.0006 -0.4049
  124DOPC  H13X17095   5.988   5.917   3.043 -1.7249  1.5079  1.4175
  124DOPC  H13Y17096   5.856   5.808   3.109  0.0874  0.6021 -1.5564
  124DOPC  C31417097   6.021   5.833   3.241  0.0743 -0.4100 -0.0585
  124DOPC  H14X17098   6.000   5.732   3.284 -0.5692 -1.6244 -3.0004
  124DOPC  H14Y17099   6.130   5.851   3.244  0.2197 -0.7514 -2.0191
  124DOPC  C31517100   5.943   5.936   3.332 -0.0381 -0.1638 -0.0216
  124DOPC  H15X17101   5.843   5.909   3.293 -0.3627 -0.3503  0.9026
  124DOPC  H15Y17102   5.978   6.040   3.316 -1.4609  0.4185  0.4881
  124DOPC  C31617103   5.955   5.909   3.480 -0.7063 -0.2874 -0.0659
  124DOPC  H16X17104   5.906   5.979   3.549  0.3693  0.5117 -0.0852
  124DOPC  H16Y17105   5.901   5.812   3.479  0.7656 -1.1449 -0.7915
  124DOPC  C31717106   6.098   5.867   3.529  0.2897  0.0377  0.3996
  124DOPC  H17X17107   6.134   5.782   3.468  1.5271  1.9466 -1.6928
  124DOPC  H17Y17108   6.170   5.951   3.518  0.1411  0.2979  1.3051
  124DOPC  C31817109   6.109   5.836   3.677 -0.1993  0.3531  0.1868
  124DOPC  H18X17110   6.041   5.752   3.703  0.8823 -1.0450 -1.2260
  124DOPC  H18Y17111   6.211   5.792   3.688 -0.7222 -0.9562  0.0008
  124DOPC  H18Z17112   6.086   5.925   3.739 -2.4094  0.8464 -1.2288
  125DOPC     N17113   0.928   1.534   1.034  0.2452 -0.1123  0.1779
  125DOPC   C1217114   0.917   1.487   1.183  0.1155 -0.3528 -0.3877
  125DOPC  H12A17115   0.875   1.387   1.178 -0.6118 -0.0284 -1.0188
  125DOPC  H12B17116   0.843   1.551   1.230 -1.4610 -2.7821  0.7062
  125DOPC   C1317117   1.041   1.452   0.974 -0.2136  0.2483 -0.1177
  125DOPC  H13A17118   1.053   1.473   0.869  0.1448 -0.3864 -0.2093
  125DOPC  H13B17119   1.136   1.469   1.022  0.2667 -1.5511 -0.3688
  125DOPC  H13C17120   1.019   1.347   0.990  0.1106 -0.0516 -1.5439
  125DOPC   C1417121   0.961   1.680   1.037 -0.4312 -0.1776  0.4757
  125DOPC  H14A17122   0.979   1.719   0.938  0.6877 -3.2158 -0.6394
  125DOPC  H14B17123   0.871   1.731   1.067 -2.4152 -2.6727 -0.7729
  125DOPC  H14C17124   1.044   1.710   1.100  0.7453 -0.6068 -0.8218
  125DOPC   C1517125   0.807   1.520   0.950  0.3435 -0.3166  0.8109
  125DOPC  H15A17126   0.768   1.420   0.939 -1.3485  0.5412 -1.7670
  125DOPC  H15B17127   0.822   1.565   0.853  3.3034 -2.1292  0.3010
  125DOPC  H15C17128   0.723   1.569   0.996  0.0385 -1.2768  1.3010
  125DOPC   C1117129   1.043   1.506   1.269 -0.6608  0.6927 -0.0403
  125DOPC  H11A17130   1.113   1.585   1.235  0.4409  0.7659  2.2112
  125DOPC  H11B17131   1.014   1.534   1.373  2.2366  0.8577  0.7983
  125DOPC     P17132   1.062   1.260   1.356  0.4337 -0.4576 -0.0279
  125DOPC   O1317133   1.177   1.174   1.379 -0.8517  0.2105  0.0634
  125DOPC   O1417134   0.952   1.205   1.271 -0.2767 -0.2863  0.1675
  125DOPC   O1217135   1.122   1.384   1.278 -0.3032  0.6171 -0.9992
  125DOPC   O1117136   1.006   1.320   1.493  0.5234 -0.1808 -0.1092
  125DOPC    C117137   1.090   1.406   1.576  0.1080  1.1158 -0.1973
  125DOPC    HA17138   1.023   1.481   1.624 -0.8977  0.3076 -0.3010
  125DOPC    HB17139   1.155   1.463   1.506  1.5222 -3.6689 -3.2836
  125DOPC    C217140   1.182   1.330   1.673  0.3333  0.5930  0.7472
  125DOPC    HS17141   1.257   1.281   1.606  1.0113  1.0821  1.1329
  125DOPC   O2117142   1.098   1.246   1.762 -0.1687  0.1547  0.8422
  125DOPC   C2117143   1.152   1.124   1.793  0.7001  0.7386  0.1433
  125DOPC   O2217144   1.234   1.061   1.726  0.0607 -0.0437 -0.2087
  125DOPC   C2217145   1.074   1.061   1.912  0.0526 -0.6691  0.5114
  125DOPC   H2R17146   1.144   0.997   1.971 -0.5420 -2.1695 -0.3697
  125DOPC   H2S17147   1.005   0.984   1.871  0.2290 -0.2747 -0.5487
  125DOPC    C317148   1.263   1.435   1.756 -0.6906  0.6518 -0.0616
  125DOPC    HX17149   1.194   1.504   1.809 -2.2868 -0.3745 -0.7227
  125DOPC    HY17150   1.336   1.488   1.691 -1.0392  0.5786 -0.5114
  125DOPC   O3117151   1.335   1.362   1.862 -0.1459  0.0839  0.4142
  125DOPC   C3117152   1.446   1.294   1.828  0.8661 -0.8133 -0.1815
  125DOPC   O3217153   1.480   1.272   1.710  0.1969 -0.3642  0.3261
  125DOPC   C3217154   1.522   1.266   1.958 -0.3812  0.7858 -0.4010
  125DOPC   H2X17155   1.631   1.244   1.951 -0.5723 -1.6624  2.2690
  125DOPC   H2Y17156   1.525   1.356   2.023 -0.6342  0.3902  0.1725
  125DOPC   C2317157   0.999   1.156   2.013  0.4521  0.0847 -0.2953
  125DOPC   H3R17158   0.939   1.229   1.955  1.0866  0.5645 -0.3539
  125DOPC   H3S17159   1.065   1.225   2.069 -0.1000  0.6759 -0.3730
  125DOPC   C2417160   0.905   1.088   2.114  0.5018  0.3800 -0.1197
  125DOPC   H4R17161   0.960   1.002   2.157  0.7349 -0.3841 -1.8591
  125DOPC   H4S17162   0.817   1.047   2.060 -2.0906  1.4540  3.0063
  125DOPC   C2517163   0.855   1.183   2.230 -1.5719 -0.2869  0.1889
  125DOPC   H5R17164   0.789   1.260   2.185 -1.7751 -0.3596  0.3595
  125DOPC   H5S17165   0.938   1.238   2.279 -0.5724 -1.7689  0.2147
  125DOPC   C2617166   0.778   1.102   2.334  0.3561 -0.1490  0.1125
  125DOPC   H6R17167   0.708   1.037   2.277 -1.4551  1.9146 -0.1423
  125DOPC   H6S17168   0.728   1.186   2.386  0.5915  0.6844 -0.9605
  125DOPC   C2717169   0.849   1.013   2.436  0.0318 -0.3402  0.4074
  125DOPC   H7R17170   0.946   1.065   2.453 -0.5545  0.6451  0.8469
  125DOPC   H7S17171   0.864   0.913   2.391 -0.3212  0.0785 -0.6733
  125DOPC   C2817172   0.776   0.996   2.566 -0.2865  0.5391 -0.7172
  125DOPC   H8R17173   0.768   1.087   2.628 -0.3609  1.0791 -1.4995
  125DOPC   H8S17174   0.843   0.927   2.623 -3.1768 -0.9803  1.0609
  125DOPC   C2917175   0.646   0.928   2.550 -0.2017  0.0904  0.5024
  125DOPC   H9R17176   0.560   0.980   2.505 -0.9092 -1.0291  0.5206
  125DOPC  C21017177   0.613   0.807   2.598 -0.0046  0.6525  0.1099
  125DOPC  H10R17178   0.510   0.772   2.585 -0.3015  1.2815  0.7389
  125DOPC  C21117179   0.705   0.699   2.660  0.1457  0.2464 -0.1488
  125DOPC  H11R17180   0.810   0.699   2.623 -0.0129 -0.9929 -0.6572
  125DOPC  H11S17181   0.667   0.597   2.638 -1.2784  0.6780  0.2167
  125DOPC  C21217182   0.732   0.696   2.804 -0.8090 -0.2547  0.2524
  125DOPC  H12R17183   0.765   0.798   2.832  1.2245 -0.8651  0.2443
  125DOPC  H12S17184   0.812   0.621   2.822 -2.7182 -2.2298  1.0282
  125DOPC  C21317185   0.614   0.661   2.887 -0.0603 -0.3134 -0.9122
  125DOPC  H13R17186   0.578   0.560   2.859 -0.0036 -0.6415  0.1760
  125DOPC  H13S17187   0.533   0.736   2.873  1.5112  2.2619  2.3901
  125DOPC  C21417188   0.658   0.670   3.037  0.0053 -0.1485 -0.0726
  125DOPC  H14R17189   0.695   0.769   3.070  1.0138 -0.2991 -0.7055
  125DOPC  H14S17190   0.745   0.601   3.046  0.8395  1.0101  0.9443
  125DOPC  C21517191   0.557   0.610   3.126  0.3182  0.1926  0.1542
  125DOPC  H15R17192   0.606   0.598   3.225 -0.1612  1.0218  0.5039
  125DOPC  H15S17193   0.547   0.506   3.087  1.2155  0.6238 -1.3263
  125DOPC  C21617194   0.425   0.678   3.123 -0.2431 -0.4277 -0.4893
  125DOPC  H16R17195   0.364   0.652   3.034 -1.4071  0.1050  0.1356
  125DOPC  H16S17196   0.444   0.787   3.116  2.1435 -0.8167 -0.8820
  125DOPC  C21717197   0.350   0.655   3.261  0.4672 -0.3016  0.1270
  125DOPC  H17R17198   0.408   0.698   3.345 -1.5168  1.4973  0.6780
  125DOPC  H17S17199   0.339   0.545   3.271 -0.9953 -0.1696  0.1610
  125DOPC  C21817200   0.205   0.705   3.263 -0.1796  0.1639 -0.0080
  125DOPC  H18R17201   0.196   0.808   3.221 -0.8362  1.5196  3.1977
  125DOPC  H18S17202   0.144   0.684   3.354 -0.8213 -2.6477 -0.9876
  125DOPC  H18T17203   0.150   0.649   3.184  1.6812 -0.9203 -0.5800
  125DOPC   C3317204   1.458   1.152   2.030 -0.2221 -0.3069 -0.1962
  125DOPC   H3X17205   1.542   1.094   2.074 -0.0813 -0.7026 -0.9708
  125DOPC   H3Y17206   1.401   1.086   1.961  1.9735 -1.3494 -1.0936
  125DOPC   C3417207   1.372   1.200   2.149  0.1359 -0.0535 -0.6938
  125DOPC   H4X17208   1.269   1.229   2.120 -1.1059 -1.2475  2.2005
  125DOPC   H4Y17209   1.402   1.290   2.207 -0.2118  0.0303 -0.6425
  125DOPC   C3517210   1.354   1.084   2.251 -0.6178 -0.4551  0.5432
  125DOPC   H5X17211   1.455   1.053   2.287 -0.4534  0.9408  1.3867
  125DOPC   H5Y17212   1.315   0.997   2.194 -0.6582 -1.2019  1.6814
  125DOPC   C3617213   1.263   1.106   2.376 -0.7905 -0.0195 -0.1247
  125DOPC   H6X17214   1.160   1.119   2.336 -0.5591  2.1870 -0.1299
  125DOPC   H6Y17215   1.265   1.007   2.427 -0.4943  0.5726  1.0390
  125DOPC   C3717216   1.300   1.213   2.476  0.9558 -0.3687  0.8155
  125DOPC   H7X17217   1.269   1.310   2.432 -0.2135 -1.5953 -1.2469
  125DOPC   H7Y17218   1.242   1.181   2.566  1.3263  0.0578  1.2141
  125DOPC   C3817219   1.451   1.216   2.517  0.2326  0.0184 -0.7530
  125DOPC   H8X17220   1.515   1.246   2.431  1.0981  1.0437  0.2121
  125DOPC   H8Y17221   1.479   1.120   2.564 -2.8602 -0.8033 -0.3719
  125DOPC   C3917222   1.472   1.329   2.617 -0.2233  0.1392  0.0779
  125DOPC   H9X17223   1.550   1.400   2.589  0.1649 -0.0116  0.7849
  125DOPC  C31017224   1.399   1.350   2.727 -0.2036  0.1156  0.1243
  125DOPC  H10X17225   1.411   1.447   2.776 -1.1435  0.1214  0.3494
  125DOPC  C31117226   1.294   1.267   2.793 -0.2318 -0.0889 -0.2423
  125DOPC  H11X17227   1.314   1.159   2.776  0.7493  0.0627 -0.1314
  125DOPC  H11Y17228   1.202   1.297   2.739 -0.4637 -0.4389 -0.0447
  125DOPC  C31217229   1.290   1.285   2.950  0.3328  0.9681 -0.0128
  125DOPC  H12X17230   1.201   1.225   2.980 -1.2425  3.0683 -0.2186
  125DOPC  H12Y17231   1.276   1.391   2.984  2.5490  1.5759 -0.8104
  125DOPC  C31317232   1.420   1.241   3.015 -0.4691 -0.9226 -0.3260
  125DOPC  H13X17233   1.447   1.135   2.996  1.5893 -0.6005  0.4538
  125DOPC  H13Y17234   1.511   1.301   2.991 -0.1435 -0.8113  1.0608
  125DOPC  C31417235   1.411   1.244   3.165 -0.0068 -0.1743 -0.1622
  125DOPC  H14X17236   1.387   1.347   3.198  0.1321 -0.0313 -0.5054
  125DOPC  H14Y17237   1.333   1.169   3.192  0.6524 -0.7787  0.1161
  125DOPC  C31517238   1.546   1.201   3.239 -0.5375 -0.3347 -0.3143
  125DOPC  H15X17239   1.622   1.280   3.219  0.9425 -1.1050  1.9529
  125DOPC  H15Y17240   1.588   1.112   3.188  0.7192  1.1377 -1.9965
  125DOPC  C31617241   1.541   1.181   3.388  0.2043  1.2331 -0.5563
  125DOPC  H16X17242   1.465   1.105   3.419  0.2048  1.3225 -0.3372
  125DOPC  H16Y17243   1.644   1.146   3.411  0.5961  0.2759 -3.3245
  125DOPC  C31717244   1.509   1.305   3.475 -1.1508  0.0770  0.2700
  125DOPC  H17X17245   1.399   1.305   3.463 -1.3096 -2.1089  1.1578
  125DOPC  H17Y17246   1.533   1.275   3.580 -0.1623 -0.6684 -0.1523
  125DOPC  C31817247   1.569   1.442   3.438  0.6204 -0.2193  0.3682
  125DOPC  H18X17248   1.679   1.429   3.437  0.5582 -1.6836  2.9882
  125DOPC  H18Y17249   1.538   1.479   3.338 -1.2527  0.8289  1.2812
  125DOPC  H18Z17250   1.543   1.507   3.524 -1.1982  0.8774 -0.9339
  126DOPC     N17251   5.046   4.305   1.713 -0.3732  0.0655  0.6032
  126DOPC   C1217252   4.932   4.229   1.776  0.2453 -0.0821  0.4020
  126DOPC  H12A17253   4.968   4.170   1.859 -1.8425 -0.2339  1.2906
  126DOPC  H12B17254   4.893   4.158   1.705 -0.7072  0.4928  0.3257
  126DOPC   C1317255   5.146   4.210   1.668  0.0975  0.4679 -0.1976
  126DOPC  H13A17256   5.116   4.132   1.600  1.4408  0.2021 -0.5288
  126DOPC  H13B17257   5.227   4.263   1.620  0.7372 -0.6571 -0.3937
  126DOPC  H13C17258   5.188   4.150   1.748  0.4068  0.1132 -0.6154
  126DOPC   C1417259   5.110   4.408   1.803 -0.3372  0.0126  0.2277
  126DOPC  H14A17260   5.195   4.460   1.760 -1.9544  2.2335 -0.4982
  126DOPC  H14B17261   5.043   4.490   1.824  1.5270  2.2823 -2.0273
  126DOPC  H14C17262   5.141   4.355   1.892  1.7136 -0.1046 -0.4955
  126DOPC   C1517263   4.990   4.376   1.590 -0.1232  0.1212 -0.7766
  126DOPC  H15A17264   5.063   4.431   1.534  0.2494 -0.8377 -1.2623
  126DOPC  H15B17265   4.914   4.441   1.631 -0.8167 -0.8467 -0.4738
  126DOPC  H15C17266   4.949   4.306   1.519  2.8403 -0.2245 -2.3016
  126DOPC   C1117267   4.804   4.305   1.818 -0.1109  0.4224  0.1871
  126DOPC  H11A17268   4.761   4.258   1.910 -0.9946  1.0522  0.1083
  126DOPC  H11B17269   4.831   4.410   1.844 -0.0417  1.0581 -2.2620
  126DOPC     P17270   4.644   4.164   1.668 -0.2012 -0.4207 -0.3984
  126DOPC   O1317271   4.730   4.071   1.602 -0.6648 -0.5984  0.5534
  126DOPC   O1417272   4.525   4.195   1.597 -0.0598 -0.0345  0.4307
  126DOPC   O1217273   4.721   4.298   1.700  0.3365 -0.2304 -0.8180
  126DOPC   O1117274   4.597   4.103   1.809 -0.4239 -0.0226 -0.1214
  126DOPC    C117275   4.493   4.160   1.889 -0.3337 -0.0019  0.4934
  126DOPC    HA17276   4.406   4.171   1.820  0.9291 -1.0357 -1.3314
  126DOPC    HB17277   4.524   4.257   1.935 -0.0482  0.2297 -0.1687
  126DOPC    C217278   4.451   4.067   2.000 -0.4989  0.2335 -0.7722
  126DOPC    HS17279   4.384   4.126   2.066 -0.3628 -1.7271  1.2459
  126DOPC   O2117280   4.573   4.019   2.067  0.5693 -0.8341  0.5763
  126DOPC   C2117281   4.634   4.114   2.139  0.5135 -0.8490 -0.5902
  126DOPC   O2217282   4.589   4.221   2.174  0.2521 -0.3040  0.5327
  126DOPC   C2217283   4.775   4.067   2.184  0.3804 -0.4056  0.5335
  126DOPC   H2R17284   4.826   4.165   2.196 -0.9064  0.2791  0.6083
  126DOPC   H2S17285   4.826   4.014   2.100  1.4651 -0.8541  1.4357
  126DOPC    C317286   4.383   3.934   1.950  0.3151  0.7281 -0.0071
  126DOPC    HX17287   4.452   3.877   1.884  1.6340  1.3144  0.8437
  126DOPC    HY17288   4.294   3.968   1.893  0.2735 -0.5759 -0.7740
  126DOPC   O3117289   4.341   3.864   2.063 -0.3079 -0.8507  0.2531
  126DOPC   C3117290   4.387   3.744   2.095 -0.1407 -0.4222 -0.6786
  126DOPC   O3217291   4.469   3.685   2.025  1.0430  0.2012  0.0005
  126DOPC   C3217292   4.340   3.716   2.238  0.7258  0.1921  0.0063
  126DOPC   H2X17293   4.286   3.805   2.278  0.0791 -0.2535  0.1334
  126DOPC   H2Y17294   4.270   3.631   2.246 -0.3794  1.2523  3.3167
  126DOPC   C2317295   4.764   3.999   2.320 -0.6670 -0.2691 -0.0389
  126DOPC   H3R17296   4.665   4.023   2.365 -0.0921 -1.6336  2.1561
  126DOPC   H3S17297   4.841   4.043   2.389  0.6457  1.0700 -2.2381
  126DOPC   C2417298   4.776   3.851   2.298  0.0622 -0.2069 -0.5961
  126DOPC   H4R17299   4.727   3.831   2.200 -0.0382  1.8574 -1.0178
  126DOPC   H4S17300   4.720   3.806   2.382 -0.8342 -0.9730 -1.5719
  126DOPC   C2517301   4.919   3.797   2.310  0.4001  0.3148 -0.2736
  126DOPC   H5R17302   4.974   3.851   2.230  0.7264 -0.0785 -0.3172
  126DOPC   H5S17303   4.912   3.692   2.275  0.5976  0.5933 -1.1811
  126DOPC   C2617304   4.977   3.810   2.456 -0.7600  0.1541 -0.1308
  126DOPC   H6R17305   4.906   3.769   2.531 -0.2160  1.0443  0.8928
  126DOPC   H6S17306   4.982   3.916   2.488 -1.8305  0.5888 -1.3302
  126DOPC   C2717307   5.112   3.739   2.472 -0.0802  0.6651  0.6012
  126DOPC   H7R17308   5.183   3.796   2.409 -1.6142  1.3083 -0.6075
  126DOPC   H7S17309   5.117   3.635   2.433 -0.5431  0.5305  0.8985
  126DOPC   C2817310   5.160   3.728   2.618 -0.5705  0.1567 -0.5877
  126DOPC   H8R17311   5.239   3.654   2.640 -2.5969 -1.7660  0.6555
  126DOPC   H8S17312   5.072   3.684   2.668  1.1713 -1.8226  0.8899
  126DOPC   C2917313   5.199   3.861   2.676  0.4970 -0.8097 -0.0130
  126DOPC   H9R17314   5.263   3.928   2.616  0.7192  1.4285  2.5619
  126DOPC  C21017315   5.172   3.906   2.803  0.2674  0.0342  0.6265
  126DOPC  H10R17316   5.206   4.008   2.828 -0.8734  1.4031 -2.8439
  126DOPC  C21117317   5.094   3.846   2.913  0.6588 -0.2811 -1.2489
  126DOPC  H11R17318   5.161   3.777   2.969 -2.0038 -0.1349  2.4431
  126DOPC  H11S17319   5.007   3.787   2.877 -0.0156  0.0331 -0.1948
  126DOPC  C21217320   5.046   3.959   3.007 -0.8782  0.4987 -0.4441
  126DOPC  H12R17321   4.955   3.923   3.061 -1.1436 -1.6590 -2.1548
  126DOPC  H12S17322   5.009   4.049   2.954  0.8488  1.6580  0.2550
  126DOPC  C21317323   5.156   4.015   3.098  0.3846  0.0249 -0.4933
  126DOPC  H13R17324   5.195   4.109   3.055  0.8108 -1.0785 -2.6857
  126DOPC  H13S17325   5.243   3.945   3.101 -0.6705 -1.3167  1.5855
  126DOPC  C21417326   5.092   4.047   3.235  0.0297  0.2065  0.1433
  126DOPC  H14R17327   5.049   3.953   3.276 -0.5663  0.9418  1.2151
  126DOPC  H14S17328   5.016   4.128   3.230  0.5877  0.6991 -2.8011
  126DOPC  C21517329   5.208   4.096   3.329 -0.0910  0.2650  0.4589
  126DOPC  H15R17330   5.245   4.196   3.299  0.5877 -0.2008 -0.2702
  126DOPC  H15S17331   5.292   4.023   3.325  0.8767  1.3388  0.7366
  126DOPC  C21617332   5.157   4.125   3.474 -0.8259 -0.1388 -0.7574
  126DOPC  H16R17333   5.073   4.197   3.464  0.0236  0.6852 -2.4463
  126DOPC  H16S17334   5.233   4.181   3.533 -2.2910  0.5278  0.5542
  126DOPC  C21717335   5.120   4.008   3.556  0.1147  0.0302 -1.1002
  126DOPC  H17R17336   5.215   3.961   3.590 -2.0275 -3.5774  0.3929
  126DOPC  H17S17337   5.075   3.944   3.477  0.2458  0.3934 -1.4782
  126DOPC  C21817338   5.023   4.039   3.662  0.2988  0.2810  0.3196
  126DOPC  H18R17339   5.055   4.105   3.745  0.4949  0.7182 -0.1018
  126DOPC  H18S17340   4.986   3.943   3.705  1.5250 -0.6415 -0.6059
  126DOPC  H18T17341   4.939   4.092   3.613 -0.4694 -1.4403 -0.3274
  126DOPC   C3317342   4.449   3.703   2.341  0.4330  0.0227 -0.5148
  126DOPC   H3X17343   4.505   3.797   2.325  1.3305 -0.2565  0.8161
  126DOPC   H3Y17344   4.511   3.616   2.311  0.3517  0.0707 -0.8257
  126DOPC   C3417345   4.416   3.688   2.488 -0.3428 -0.3295 -0.0615
  126DOPC   H4X17346   4.515   3.693   2.537  0.5217 -2.3459 -1.4334
  126DOPC   H4Y17347   4.376   3.587   2.511 -0.3305 -0.2271  0.4222
  126DOPC   C3517348   4.333   3.802   2.532  0.2452  0.4375  0.1383
  126DOPC   H5X17349   4.241   3.794   2.471  1.0140 -0.1205 -0.9749
  126DOPC   H5Y17350   4.384   3.897   2.507  1.7689 -0.3692  0.1017
  126DOPC   C3617351   4.301   3.797   2.681  0.1316 -0.2476 -0.4546
  126DOPC   H6X17352   4.267   3.697   2.716 -1.3373  0.5028  0.3638
  126DOPC   H6Y17353   4.399   3.799   2.734 -1.0683  0.3434  1.9053
  126DOPC   C3717354   4.204   3.912   2.719 -0.1376  0.5235  0.3016
  126DOPC   H7X17355   4.221   4.009   2.668  0.3808  1.0734  1.4941
  126DOPC   H7Y17356   4.101   3.877   2.696 -0.6820  1.6670  0.9493
  126DOPC   C3817357   4.199   3.928   2.870 -0.8193  1.0402  0.4360
  126DOPC   H8X17358   4.181   3.827   2.914 -0.1744  0.2948 -0.9224
  126DOPC   H8Y17359   4.113   3.994   2.894  0.0067  2.0390  0.7194
  126DOPC   C3917360   4.317   3.998   2.925 -0.4412 -0.4302 -0.2216
  126DOPC   H9X17361   4.385   4.055   2.859 -0.2834 -1.8595 -1.3307
  126DOPC  C31017362   4.343   4.012   3.053 -0.0743 -0.2030 -0.0538
  126DOPC  H10X17363   4.433   4.068   3.082  0.6763 -1.6092  0.4258
  126DOPC  C31117364   4.264   3.948   3.161  0.5709 -0.8082  0.5549
  126DOPC  H11X17365   4.266   3.837   3.156  0.7493 -0.8139  0.7529
  126DOPC  H11Y17366   4.159   3.980   3.140 -0.1339 -2.3762  1.5340
  126DOPC  C31217367   4.314   3.985   3.301 -0.2079  0.1335  0.0039
  126DOPC  H12X17368   4.306   4.095   3.314 -0.1875  0.1532 -0.1469
  126DOPC  H12Y17369   4.420   3.950   3.304 -0.5338 -0.8524  1.7068
  126DOPC  C31317370   4.237   3.925   3.419  0.0775  0.3484  0.5843
  126DOPC  H13X17371   4.137   3.968   3.397  0.0758  0.5758  1.0193
  126DOPC  H13Y17372   4.225   3.815   3.416 -0.7817  0.4589 -0.8802
  126DOPC  C31417373   4.286   3.948   3.564  1.1158 -0.7073 -0.5304
  126DOPC  H14X17374   4.392   3.912   3.562  2.5173  2.6121  2.7337
  126DOPC  H14Y17375   4.290   4.056   3.588 -0.5531 -1.0372  1.4276
  126DOPC  C31517376   4.202   3.879   3.673  0.0265 -0.1373 -0.0165
  126DOPC  H15X17377   4.204   3.772   3.644  2.1096  0.1938 -1.2891
  126DOPC  H15Y17378   4.095   3.911   3.670  0.0809  0.0142 -1.3740
  126DOPC  C31617379   4.265   3.895   3.811  0.9827 -0.2194 -1.2348
  126DOPC  H16X17380   4.365   3.845   3.812  1.5506  0.8800 -0.0204
  126DOPC  H16Y17381   4.279   4.004   3.829  3.8706 -0.3141 -2.2636
  126DOPC  C31717382   4.181   3.806   3.917  0.5958  0.0947  0.0398
  126DOPC  H17X17383   4.074   3.837   3.922  0.4475 -0.5062  0.7348
  126DOPC  H17Y17384   4.194   3.705   3.872  2.2724  0.0620  0.5422
  126DOPC  C31817385   4.242   3.821   4.052  1.0741  0.3476 -0.2765
  126DOPC  H18X17386   4.183   3.774   4.134  2.1971 -0.1049  0.3094
  126DOPC  H18Y17387   4.336   3.761   4.045  0.3373 -1.0040  0.8120
  126DOPC  H18Z17388   4.256   3.928   4.078 -0.0269  0.4047  0.1258
  127DOPC     N17389   3.284   3.987   0.624  0.1657 -0.2124  0.0122
  127DOPC   C1217390   3.286   4.072   0.749  0.0065  0.5053 -0.4752
  127DOPC  H12A17391   3.203   4.140   0.736 -2.6735 -1.8976  2.5328
  127DOPC  H12B17392   3.373   4.136   0.747 -0.5287  1.3472  1.3431
  127DOPC   C1317393   3.399   3.882   0.629  0.4798 -0.5146 -0.2678
  127DOPC  H13A17394   3.492   3.925   0.596  0.1290 -0.1117 -0.7350
  127DOPC  H13B17395   3.428   3.861   0.731  0.3940  1.4271  0.1952
  127DOPC  H13C17396   3.393   3.798   0.562 -0.9020  0.5750 -1.5767
  127DOPC   C1417397   3.297   4.071   0.497  0.6659 -0.5075  0.4596
  127DOPC  H14A17398   3.401   4.094   0.476  0.2638 -0.3947 -1.5916
  127DOPC  H14B17399   3.257   4.017   0.413 -1.0700  3.0436 -1.2038
  127DOPC  H14C17400   3.232   4.156   0.506  1.9167  0.5801 -0.5278
  127DOPC   C1517401   3.155   3.908   0.618 -0.0065  0.0172 -0.5757
  127DOPC  H15A17402   3.072   3.976   0.601 -0.1975 -0.3280 -1.0421
  127DOPC  H15B17403   3.129   3.852   0.706 -2.6620 -0.0875 -1.3426
  127DOPC  H15C17404   3.168   3.833   0.541  0.4142 -1.2219  0.6708
  127DOPC   C1117405   3.282   4.007   0.893 -0.1836 -0.3977  0.2547
  127DOPC  H11A17406   3.264   4.091   0.963 -0.6066 -0.3885  0.1382
  127DOPC  H11B17407   3.186   3.951   0.905 -1.1640  1.4839  1.6971
  127DOPC     P17408   3.518   3.955   0.983 -0.2677 -0.3544 -0.1436
  127DOPC   O1317409   3.553   4.095   0.937  0.1675  0.3239 -0.0668
  127DOPC   O1417410   3.611   3.842   0.945  0.0626 -0.0739 -0.4402
  127DOPC   O1217411   3.383   3.909   0.921 -0.1850 -0.3047  0.0427
  127DOPC   O1117412   3.483   3.957   1.130 -0.4212 -0.0444  0.0328
  127DOPC    C117413   3.369   3.888   1.185  0.0994 -0.6322 -0.2543
  127DOPC    HA17414   3.372   3.780   1.160 -0.3036 -0.4913 -0.9298
  127DOPC    HB17415   3.276   3.943   1.156  1.0565  0.7831 -0.7536
  127DOPC    C217416   3.382   3.903   1.341 -0.0163 -0.0610  0.5051
  127DOPC    HS17417   3.291   3.863   1.391  0.7868 -0.9822  1.2827
  127DOPC   O2117418   3.392   4.045   1.384  0.3241 -0.0705  0.0943
  127DOPC   C2117419   3.288   4.121   1.371  0.2304  0.4286  0.1437
  127DOPC   O2217420   3.176   4.094   1.331 -0.7509  0.3413 -0.0379
  127DOPC   C2217421   3.329   4.261   1.397 -0.4054  0.3343 -1.0447
  127DOPC   H2R17422   3.318   4.316   1.301  1.1750  0.4361 -1.1969
  127DOPC   H2S17423   3.431   4.264   1.442 -1.2382 -4.4733  1.9283
  127DOPC    C317424   3.492   3.811   1.399  0.1998  0.0966  0.2310
  127DOPC    HX17425   3.576   3.825   1.327 -1.7633 -1.6420 -2.6049
  127DOPC    HY17426   3.451   3.710   1.376  0.8737 -0.1271 -0.0065
  127DOPC   O3117427   3.505   3.842   1.539  0.5870  0.4394 -0.1434
  127DOPC   C3117428   3.611   3.923   1.561  0.2610 -0.6584  0.1553
  127DOPC   O3217429   3.703   3.948   1.483  1.2068  0.1624 -0.6402
  127DOPC   C3217430   3.596   4.005   1.689 -0.7775 -1.1132 -0.2137
  127DOPC   H2X17431   3.492   4.045   1.699 -0.2510 -0.2225  2.5971
  127DOPC   H2Y17432   3.613   3.944   1.780 -2.2117  2.1185  2.4517
  127DOPC   C2317433   3.230   4.335   1.503  0.1438  0.3141  0.0841
  127DOPC   H3R17434   3.126   4.297   1.498 -0.1167  0.8328  1.2117
  127DOPC   H3S17435   3.233   4.444   1.484  0.3915 -0.1821 -3.1376
  127DOPC   C2417436   3.286   4.304   1.652 -0.0664 -0.0194 -0.0992
  127DOPC   H4R17437   3.368   4.376   1.678  1.2122 -1.9884  1.5980
  127DOPC   H4S17438   3.329   4.202   1.653 -0.9107 -0.4317  2.7860
  127DOPC   C2517439   3.173   4.309   1.759 -0.6158 -0.3443  0.8164
  127DOPC   H5R17440   3.130   4.208   1.776  1.7288 -1.2232  1.9486
  127DOPC   H5S17441   3.098   4.381   1.719  3.3468  4.1514  0.6248
  127DOPC   C2617442   3.219   4.370   1.901  0.1465  0.3176  0.4159
  127DOPC   H6R17443   3.326   4.345   1.921 -0.2467 -2.0004 -0.0431
  127DOPC   H6S17444   3.157   4.311   1.972  0.3119 -0.2927  0.0633
  127DOPC   C2717445   3.184   4.517   1.908 -0.1704  0.0512 -0.5534
  127DOPC   H7R17446   3.074   4.527   1.896 -0.1405  0.3238 -0.5950
  127DOPC   H7S17447   3.240   4.573   1.830  0.5240  1.1194  0.6737
  127DOPC   C2817448   3.222   4.569   2.048  0.2320 -0.1265  0.1803
  127DOPC   H8R17449   3.333   4.567   2.048  0.2342 -0.0676  0.4032
  127DOPC   H8S17450   3.188   4.495   2.124  2.3020 -0.3622  0.9623
  127DOPC   C2917451   3.173   4.710   2.084 -0.3372  0.4216 -0.4975
  127DOPC   H9R17452   3.123   4.763   2.002 -0.6074  1.5885  0.3835
  127DOPC  C21017453   3.189   4.767   2.207 -0.2337  0.0508  0.0380
  127DOPC  H10R17454   3.163   4.874   2.212 -0.0768  0.2678 -2.4542
  127DOPC  C21117455   3.255   4.708   2.333  0.3668 -0.1744  0.4301
  127DOPC  H11R17456   3.339   4.777   2.358 -1.2438  1.9510  0.2518
  127DOPC  H11S17457   3.297   4.608   2.309  0.5647 -0.5834  2.3471
  127DOPC  C21217458   3.153   4.690   2.446  0.2180  0.5820  0.1923
  127DOPC  H12R17459   3.090   4.602   2.420  2.0206 -0.8762  0.5539
  127DOPC  H12S17460   3.081   4.774   2.440  1.3792  1.5032 -1.9048
  127DOPC  C21317461   3.207   4.666   2.587  0.5819  0.0733  0.1898
  127DOPC  H13R17462   3.166   4.571   2.628 -1.9884  1.2865  0.6628
  127DOPC  H13S17463   3.172   4.750   2.651 -0.8300  0.2091 -0.7127
  127DOPC  C21417464   3.361   4.663   2.601  0.7276 -0.1122  0.5149
  127DOPC  H14R17465   3.408   4.757   2.566 -1.6575  0.6558 -0.9006
  127DOPC  H14S17466   3.405   4.580   2.541  0.3122  0.2464 -0.3095
  127DOPC  C21517467   3.410   4.650   2.746 -0.3063  0.6010 -0.3680
  127DOPC  H15R17468   3.379   4.551   2.786  1.5737 -0.6991 -1.9834
  127DOPC  H15S17469   3.359   4.730   2.804 -1.1242  1.6594 -2.4389
  127DOPC  C21617470   3.560   4.653   2.767  0.2041  0.0994 -0.2650
  127DOPC  H16R17471   3.594   4.756   2.742  2.1029 -0.0915  1.2987
  127DOPC  H16S17472   3.607   4.585   2.692 -1.1878 -1.9548  0.6265
  127DOPC  C21717473   3.616   4.610   2.900 -0.8036  1.1306 -0.1782
  127DOPC  H17R17474   3.596   4.504   2.928  1.8017  1.1023  1.8683
  127DOPC  H17S17475   3.575   4.669   2.985 -1.7274 -0.3969  0.4864
  127DOPC  C21817476   3.766   4.640   2.906 -0.7513 -0.7274  0.1646
  127DOPC  H18R17477   3.807   4.593   2.998  0.9417  0.5815  0.1316
  127DOPC  H18S17478   3.776   4.749   2.922 -0.8009 -0.2979 -2.3605
  127DOPC  H18T17479   3.819   4.590   2.822  1.1326  0.6347  0.4694
  127DOPC   C3317480   3.695   4.123   1.710 -0.4039 -0.0564  0.4572
  127DOPC   H3X17481   3.674   4.198   1.631 -2.6330  0.4267  1.4415
  127DOPC   H3Y17482   3.801   4.092   1.691 -1.3298 -1.2080 -4.0934
  127DOPC   C3417483   3.659   4.201   1.839  0.1939 -0.4130 -0.9207
  127DOPC   H4X17484   3.679   4.134   1.925 -1.8640  0.0056 -0.0751
  127DOPC   H4Y17485   3.551   4.223   1.842  0.1383 -0.7329 -0.3089
  127DOPC   C3517486   3.745   4.333   1.871 -0.1712  0.7254 -0.6794
  127DOPC   H5X17487   3.676   4.372   1.948  0.3730 -0.6648  0.5808
  127DOPC   H5Y17488   3.756   4.407   1.789 -2.8503 -0.7074 -2.4889
  127DOPC   C3617489   3.890   4.302   1.925 -0.8065 -0.0622  0.0568
  127DOPC   H6X17490   3.963   4.291   1.843 -0.9497 -2.3526  0.1601
  127DOPC   H6Y17491   3.932   4.393   1.972  0.1514 -0.3787 -0.1682
  127DOPC   C3717492   3.900   4.186   2.021  0.2395  0.5094  0.3094
  127DOPC   H7X17493   3.817   4.188   2.094  0.5912  2.4249  0.7199
  127DOPC   H7Y17494   3.883   4.100   1.954  0.7066  1.4340 -1.0317
  127DOPC   C3817495   4.040   4.168   2.091 -0.0514  0.6110 -0.2228
  127DOPC   H8X17496   4.113   4.194   2.011  0.1526 -1.5587 -0.7996
  127DOPC   H8Y17497   4.062   4.068   2.132 -1.3859  1.0219  1.6176
  127DOPC   C3917498   4.049   4.258   2.207  0.2380 -0.0059  0.5489
  127DOPC   H9X17499   3.999   4.356   2.198  0.6058  0.2745  1.4866
  127DOPC  C31017500   4.117   4.243   2.319  0.0684 -0.3821  0.5358
  127DOPC  H10X17501   4.095   4.325   2.389 -0.5583  0.4311 -0.5707
  127DOPC  C31117502   4.204   4.126   2.362 -0.3754 -0.1757 -0.4078
  127DOPC  H11X17503   4.213   4.051   2.280  2.5364 -0.2438 -0.1253
  127DOPC  H11Y17504   4.161   4.068   2.446 -0.8925 -0.1933 -0.6811
  127DOPC  C31217505   4.353   4.173   2.394  0.2754 -0.4589 -0.2849
  127DOPC  H12X17506   4.387   4.227   2.303  2.3010 -2.7985 -1.0575
  127DOPC  H12Y17507   4.401   4.073   2.382  0.5686 -0.1834 -1.5793
  127DOPC  C31317508   4.367   4.243   2.530 -0.3280  0.2067 -0.3178
  127DOPC  H13X17509   4.307   4.335   2.517 -0.2145  0.3230 -0.0161
  127DOPC  H13Y17510   4.317   4.172   2.600 -1.7262  1.3476 -0.1145
  127DOPC  C31417511   4.501   4.278   2.597 -0.0284  0.6839  0.4293
  127DOPC  H14X17512   4.562   4.344   2.532 -0.4805  2.5881  1.8679
  127DOPC  H14Y17513   4.482   4.329   2.694  1.0072  1.6502  0.1453
  127DOPC  C31517514   4.579   4.157   2.625 -0.1273 -0.1937 -0.1694
  127DOPC  H15X17515   4.509   4.076   2.656  0.3825 -0.2925  0.7406
  127DOPC  H15Y17516   4.635   4.125   2.534 -0.5506 -3.5096  0.5838
  127DOPC  C31617517   4.678   4.186   2.734 -0.2291 -0.0351 -0.4502
  127DOPC  H16X17518   4.712   4.290   2.714 -0.5588 -0.4788 -4.1587
  127DOPC  H16Y17519   4.624   4.179   2.830 -0.3776 -0.6653 -0.5762
  127DOPC  C31717520   4.800   4.094   2.719  0.4896  0.5972  0.3397
  127DOPC  H17X17521   4.842   4.106   2.617  2.4825 -1.5453  0.8163
  127DOPC  H17Y17522   4.874   4.120   2.797  0.9722  0.9134 -0.2134
  127DOPC  C31817523   4.764   3.947   2.734  0.1319 -0.2488  0.5426
  127DOPC  H18X17524   4.683   3.912   2.667  1.4072  0.9213 -1.7403
  127DOPC  H18Y17525   4.856   3.884   2.723  0.0333  0.0326 -3.0363
  127DOPC  H18Z17526   4.727   3.945   2.839 -0.1165  0.9810  0.4909
  128DOPC     N17527   1.045   3.534   0.804 -0.2158  0.4050  0.1267
  128DOPC   C1217528   1.108   3.502   0.938 -0.3968 -0.6535  0.2817
  128DOPC  H12A17529   1.188   3.430   0.930  0.4943  0.0088  2.5689
  128DOPC  H12B17530   1.030   3.442   0.983 -1.7612  0.8489  0.0112
  128DOPC   C1317531   1.141   3.606   0.710  0.3314  0.4197  0.4731
  128DOPC  H13A17532   1.096   3.635   0.616 -0.4253 -0.5782  0.5158
  128DOPC  H13B17533   1.160   3.699   0.761 -1.8199  0.7112  0.8448
  128DOPC  H13C17534   1.235   3.558   0.687 -0.5608 -0.7038 -1.0433
  128DOPC   C1417535   0.922   3.615   0.842  0.0116 -0.3663  0.3257
  128DOPC  H14A17536   0.935   3.704   0.903  1.7599 -0.3134 -0.0584
  128DOPC  H14B17537   0.863   3.640   0.755 -0.2441  0.5783  0.7500
  128DOPC  H14C17538   0.850   3.563   0.904 -0.8353  2.4546  1.8925
  128DOPC   C1517539   0.996   3.410   0.735  0.4835 -0.3632 -0.0793
  128DOPC  H15A17540   0.945   3.434   0.643 -0.2256  1.5925  0.7601
  128DOPC  H15B17541   0.915   3.369   0.793  1.1135  1.1377  1.9730
  128DOPC  H15C17542   1.071   3.338   0.708  0.4374  0.0051 -1.2314
  128DOPC   C1117543   1.153   3.613   1.035 -0.4910  0.3203 -0.0373
  128DOPC  H11A17544   1.203   3.562   1.120 -0.9146 -1.1135 -0.6232
  128DOPC  H11B17545   1.231   3.670   0.979 -1.0583  0.3797 -0.7931
  128DOPC     P17546   0.980   3.698   1.208 -0.1968  0.1777 -0.8074
  128DOPC   O1317547   0.923   3.563   1.220 -0.7998  0.0326  0.2413
  128DOPC   O1417548   0.894   3.817   1.227 -0.0681 -0.7235  0.3587
  128DOPC   O1217549   1.051   3.713   1.070  0.1516  0.5001 -0.7016
  128DOPC   O1117550   1.107   3.708   1.309  0.0240 -0.0537 -0.2265
  128DOPC    C117551   1.155   3.827   1.375 -0.0289 -0.5169  0.6888
  128DOPC    HA17552   1.118   3.922   1.332 -0.2061  0.4559  2.8231
  128DOPC    HB17553   1.266   3.832   1.365  0.0687 -2.2339  0.6925
  128DOPC    C217554   1.113   3.842   1.530  0.7585  0.0736  0.0494
  128DOPC    HS17555   1.159   3.936   1.568  1.2960  0.5038 -1.5634
  128DOPC   O2117556   1.158   3.728   1.608 -0.1438 -0.1969 -0.6868
  128DOPC   C2117557   1.294   3.694   1.612 -0.1281 -0.3774 -0.2204
  128DOPC   O2217558   1.383   3.759   1.561  0.6314 -0.2011  0.0134
  128DOPC   C2217559   1.306   3.555   1.674  0.0153 -0.3352 -0.0348
  128DOPC   H2R17560   1.364   3.493   1.603  0.9057  3.0164 -2.4560
  128DOPC   H2S17561   1.204   3.511   1.676 -0.2899  0.3691  0.9360
  128DOPC    C317562   0.960   3.847   1.543 -0.2987 -0.7955  0.3570
  128DOPC    HX17563   0.916   3.755   1.499  2.8267 -3.1231  1.7197
  128DOPC    HY17564   0.927   3.940   1.493  0.5829  0.1703  1.5336
  128DOPC   O3117565   0.926   3.847   1.680 -0.4671 -0.0521  0.5105
  128DOPC   C3117566   0.930   3.956   1.752  0.8544 -0.9768  0.2125
  128DOPC   O3217567   0.942   4.068   1.706 -0.2249  0.1306  0.3370
  128DOPC   C3217568   0.924   3.941   1.906  0.1684 -0.4354  0.0463
  128DOPC   H2X17569   1.026   3.974   1.932 -0.5077  2.2985 -0.4236
  128DOPC   H2Y17570   0.852   4.019   1.941 -0.5364 -0.5443 -1.0953
  128DOPC   C2317571   1.380   3.574   1.809 -0.3028  0.2583  0.1807
  128DOPC   H3R17572   1.453   3.657   1.799 -0.9190  0.4768 -4.6038
  128DOPC   H3S17573   1.440   3.482   1.823  1.0672  1.2069  0.8135
  128DOPC   C2417574   1.278   3.612   1.921 -0.1758 -0.2720 -0.5421
  128DOPC   H4R17575   1.194   3.539   1.913 -0.2409 -0.5959  2.0308
  128DOPC   H4S17576   1.244   3.715   1.898  2.1517  0.8210  0.5583
  128DOPC   C2517577   1.327   3.620   2.067 -0.6560 -0.7742  0.0153
  128DOPC   H5R17578   1.429   3.661   2.086 -1.4920 -0.0194  3.4312
  128DOPC   H5S17579   1.339   3.515   2.101  2.0282 -0.3670  0.5435
  128DOPC   C2617580   1.221   3.693   2.150  0.1626 -0.4626  0.2216
  128DOPC   H6R17581   1.131   3.630   2.136 -0.1398  0.2576 -1.2350
  128DOPC   H6S17582   1.210   3.792   2.102  0.7594  0.0049  1.0178
  128DOPC   C2717583   1.254   3.692   2.303 -0.4687 -0.2478  0.8648
  128DOPC   H7R17584   1.337   3.764   2.322 -0.2713  0.0786 -1.0543
  128DOPC   H7S17585   1.274   3.591   2.343  0.6641  0.6015  2.5680
  128DOPC   C2817586   1.129   3.748   2.384  0.5416  0.7928  1.0193
  128DOPC   H8R17587   1.091   3.837   2.330  0.2227 -0.9040 -1.6905
  128DOPC   H8S17588   1.158   3.789   2.484  0.6784  1.0953  0.8597
  128DOPC   C2917589   1.003   3.657   2.377  0.1483  1.0569  0.0643
  128DOPC   H9R17590   0.955   3.634   2.281  0.4564  2.3103 -0.4096
  128DOPC  C21017591   0.945   3.601   2.482 -0.6612  0.5519 -0.2422
  128DOPC  H10R17592   0.858   3.535   2.467 -1.3319  2.0017 -3.9798
  128DOPC  C21117593   1.000   3.615   2.622  0.5734 -0.2276  0.5996
  128DOPC  H11R17594   1.111   3.624   2.623  0.5545  1.5502 -2.2317
  128DOPC  H11S17595   0.970   3.527   2.683 -0.2059 -0.5881 -0.2740
  128DOPC  C21217596   0.934   3.736   2.697  0.0111  0.2294 -0.2942
  128DOPC  H12R17597   0.982   3.833   2.672 -0.9087  0.6254 -0.5778
  128DOPC  H12S17598   0.936   3.723   2.807  1.0612  0.1237 -0.3158
  128DOPC  C21317599   0.791   3.766   2.658  0.1368  0.1095  0.4766
  128DOPC  H13R17600   0.723   3.678   2.669 -1.1147  1.1995  1.8852
  128DOPC  H13S17601   0.770   3.795   2.553  0.2630 -1.1223  0.0893
  128DOPC  C21417602   0.737   3.880   2.744  0.5967  0.1550  0.7617
  128DOPC  H14R17603   0.811   3.963   2.748  1.8495 -0.8889 -0.1773
  128DOPC  H14S17604   0.744   3.833   2.844 -0.1989 -2.0837 -0.1770
  128DOPC  C21517605   0.594   3.912   2.716 -0.5462  0.1397 -1.0010
  128DOPC  H15R17606   0.522   3.835   2.753  1.8925 -1.3059  1.1228
  128DOPC  H15S17607   0.584   3.921   2.606  0.5953  0.7315 -1.0707
  128DOPC  C21617608   0.540   4.045   2.771  0.3318  0.5885 -0.2641
  128DOPC  H16R17609   0.611   4.130   2.760  0.5147  0.4506 -0.1539
  128DOPC  H16S17610   0.504   4.032   2.875  1.8549 -0.1477  0.1848
  128DOPC  C21717611   0.409   4.083   2.695 -0.6560  0.8764 -0.0757
  128DOPC  H17R17612   0.346   3.993   2.709  1.6416 -0.9876 -1.0789
  128DOPC  H17S17613   0.440   4.084   2.588 -1.4599 -0.4643 -0.3427
  128DOPC  C21817614   0.342   4.210   2.745  0.5787  0.4360  0.6265
  128DOPC  H18R17615   0.269   4.234   2.665  0.7398 -1.3022 -0.0894
  128DOPC  H18S17616   0.402   4.303   2.749 -1.8510  2.3704 -2.8182
  128DOPC  H18T17617   0.299   4.192   2.846 -1.1747 -1.8925 -0.4454
  128DOPC   C3317618   0.882   3.800   1.953 -0.7439  0.3562 -0.7819
  128DOPC   H3X17619   0.941   3.781   2.045 -0.2300  1.8836 -0.7667
  128DOPC   H3Y17620   0.917   3.719   1.886 -3.5174 -2.5005  0.9604
  128DOPC   C3417621   0.726   3.796   1.982  0.2447 -0.3930 -0.0776
  128DOPC   H4X17622   0.675   3.822   1.888 -0.7780  0.1967  0.6212
  128DOPC   H4Y17623   0.702   3.880   2.051 -1.2701  0.0256 -1.0723
  128DOPC   C3517624   0.684   3.663   2.049  0.0541 -0.0455 -0.1367
  128DOPC   H5X17625   0.766   3.628   2.116  0.6057 -1.0338 -1.2886
  128DOPC   H5Y17626   0.675   3.586   1.970  0.3955  0.9216 -1.1520
  128DOPC   C3617627   0.565   3.695   2.142 -0.1113  0.1961 -0.2701
  128DOPC   H6X17628   0.608   3.753   2.226  0.0487 -1.6986  0.9992
  128DOPC   H6Y17629   0.493   3.748   2.076  0.4567  0.2427 -0.8644
  128DOPC   C3717630   0.500   3.574   2.201 -0.9248  0.5229  0.3410
  128DOPC   H7X17631   0.503   3.492   2.127 -3.2564 -0.2178  0.9884
  128DOPC   H7Y17632   0.554   3.546   2.294 -2.2976  0.2211  1.0613
  128DOPC   C3817633   0.353   3.600   2.236 -0.0038 -0.3646  0.0483
  128DOPC   H8X17634   0.313   3.502   2.268 -1.8628  0.2766 -0.1957
  128DOPC   H8Y17635   0.303   3.621   2.139 -1.1295 -0.7569  0.5386
  128DOPC   C3917636   0.325   3.705   2.342 -0.2949  0.3975 -0.4648
  128DOPC   H9X17637   0.316   3.806   2.301 -2.1699  0.5725  0.3046
  128DOPC  C31017638   0.294   3.685   2.470  0.2025  0.0965 -0.1943
  128DOPC  H10X17639   0.275   3.771   2.536  0.5231 -1.0114  1.4011
  128DOPC  C31117640   0.295   3.550   2.537 -0.2307  0.0237  0.0023
  128DOPC  H11X17641   0.397   3.512   2.555 -0.4195 -0.0614  0.9371
  128DOPC  H11Y17642   0.257   3.469   2.470 -1.9037 -0.5278  1.5196
  128DOPC  C31217643   0.216   3.554   2.665 -0.0855  0.1078 -0.7151
  128DOPC  H12X17644   0.250   3.641   2.724  2.4081 -0.3287 -1.3744
  128DOPC  H12Y17645   0.244   3.465   2.726 -0.9193 -0.1484 -0.6979
  128DOPC  C31317646   0.063   3.553   2.645 -0.4876  0.2792  0.3333
  128DOPC  H13X17647   0.034   3.653   2.606  1.4735  0.2718 -1.3166
  128DOPC  H13Y17648   0.029   3.475   2.574 -2.0916  0.3115  1.0168
  128DOPC  C31417649   8.520   3.528   2.773 -0.1659  0.3699 -0.9243
  128DOPC  H14X17650   0.024   3.437   2.823  3.1500  2.7475  1.1669
  128DOPC  H14Y17651   0.013   3.595   2.857 -0.8947 -1.0040  0.4639
  128DOPC  C31517652   8.367   3.532   2.765 -0.4956 -0.0127 -0.3889
  128DOPC  H15X17653   8.330   3.438   2.719 -2.5153  0.7998 -0.5240
  128DOPC  H15Y17654   8.328   3.613   2.701  0.9671  0.2225 -1.0248
  128DOPC  C31617655   8.277   3.546   2.892 -0.3562  0.3893 -0.1937
  128DOPC  H16X17656   8.267   3.650   2.932  0.8275 -0.0585  1.3269
  128DOPC  H16Y17657   8.175   3.531   2.850 -0.3382 -0.5804  0.0918
  128DOPC  C31717658   8.303   3.454   3.010 -0.3737 -0.1434  0.2786
  128DOPC  H17X17659   8.298   3.351   2.970 -0.6375 -0.0393  0.0396
  128DOPC  H17Y17660   8.404   3.467   3.054 -0.9614 -1.1580  1.9953
  128DOPC  C31817661   8.200   3.460   3.119 -0.1943  0.2342 -0.0853
  128DOPC  H18X17662   8.105   3.501   3.076 -1.9517 -1.8926  1.5078
  128DOPC  H18Y17663   8.184   3.356   3.155 -1.3244  0.4799  0.1609
  128DOPC  H18Z17664   8.228   3.529   3.201  1.5937 -2.2457  1.5357
  129DOPC     N17665   7.249   2.819   1.453 -0.5055 -0.1595  0.0966
  129DOPC   C1217666   7.119   2.867   1.522  0.0159 -0.0937 -0.0973
  129DOPC  H12A17667   7.117   2.843   1.627 -0.5866  3.2192  0.7284
  129DOPC  H12B17668   7.034   2.819   1.476 -1.0215 -0.3967  2.0297
  129DOPC   C1317669   7.229   2.848   1.304 -0.7584 -0.3162  0.6734
  129DOPC  H13A17670   7.322   2.813   1.260 -1.5590 -0.2439 -1.1342
  129DOPC  H13B17671   7.148   2.786   1.270 -1.5272  0.3515  1.2578
  129DOPC  H13C17672   7.208   2.949   1.274 -0.3050 -0.3121  0.3534
  129DOPC   C1417673   7.248   2.670   1.471  0.1245 -0.1297 -0.2248
  129DOPC  H14A17674   7.152   2.629   1.444 -0.5056  0.3929  1.0994
  129DOPC  H14B17675   7.331   2.621   1.421  1.3140  0.2573  1.2658
  129DOPC  H14C17676   7.265   2.644   1.575 -0.4131  0.1138 -0.0767
  129DOPC   C1517677   7.374   2.871   1.516 -0.4818  0.2134 -0.8511
  129DOPC  H15A17678   7.456   2.830   1.460 -0.1982  2.7210 -2.4205
  129DOPC  H15B17679   7.382   2.843   1.620 -1.5910 -3.5285 -1.6041
  129DOPC  H15C17680   7.380   2.979   1.513 -0.0369  0.1804 -3.2638
  129DOPC   C1117681   7.096   3.022   1.515 -1.0047 -0.3957  0.4580
  129DOPC  H11A17682   7.094   3.069   1.414 -2.0440  1.2272  1.1853
  129DOPC  H11B17683   6.999   3.038   1.566 -0.5238 -0.9362  1.5758
  129DOPC     P17684   7.179   3.098   1.756 -0.1717  0.0600  0.1159
  129DOPC   O1317685   7.247   2.987   1.828 -0.5197  0.0191  0.1533
  129DOPC   O1417686   7.041   3.138   1.795 -0.2091  0.5380 -0.6357
  129DOPC   O1217687   7.199   3.084   1.593 -0.2674 -0.2530 -0.1388
  129DOPC   O1117688   7.263   3.227   1.789 -0.2941  0.2658  0.3706
  129DOPC    C117689   7.405   3.224   1.808 -0.5875  1.0336 -0.8802
  129DOPC    HA17690   7.456   3.313   1.766  1.3124  1.1243  1.4174
  129DOPC    HB17691   7.453   3.138   1.757 -0.2545  0.8281 -0.2225
  129DOPC    C217692   7.426   3.221   1.964 -0.2857  0.4154  0.1731
  129DOPC    HS17693   7.406   3.120   2.007 -2.7205 -0.0129 -1.7061
  129DOPC   O2117694   7.356   3.328   2.026 -0.3597 -0.8795 -0.7533
  129DOPC   C2117695   7.315   3.306   2.151  0.1438  0.4892 -0.1403
  129DOPC   O2217696   7.322   3.195   2.206  0.9317 -0.0205 -0.3814
  129DOPC   C2217697   7.256   3.436   2.212  0.0707 -0.0943 -0.5378
  129DOPC   H2R17698   7.224   3.510   2.135 -2.4620 -1.8866 -1.3299
  129DOPC   H2S17699   7.347   3.478   2.261  0.4752 -1.0919 -0.4110
  129DOPC    C317700   7.572   3.253   1.998 -0.1789 -0.0811 -0.0083
  129DOPC    HX17701   7.592   3.359   1.973  0.4530 -0.1006  0.3785
  129DOPC    HY17702   7.640   3.192   1.935 -0.0225  0.1039 -0.0190
  129DOPC   O3117703   7.604   3.235   2.140 -0.1699 -0.2526 -0.6776
  129DOPC   C3117704   7.639   3.115   2.176  0.1284  0.4254  0.0205
  129DOPC   O3217705   7.651   3.012   2.110 -0.0411  0.2570 -0.3351
  129DOPC   C3217706   7.671   3.121   2.327 -0.2061  0.2358 -0.0276
  129DOPC   H2X17707   7.589   3.176   2.377  0.0254  1.9679 -1.4470
  129DOPC   H2Y17708   7.664   3.014   2.356 -0.1875 -0.2194 -1.6089
  129DOPC   C2317709   7.136   3.406   2.306  0.0871 -0.0740  0.3143
  129DOPC   H3R17710   7.143   3.337   2.393 -3.0287  0.6501  1.2902
  129DOPC   H3S17711   7.054   3.363   2.244 -0.9838  1.2052  0.7875
  129DOPC   C2417712   7.069   3.534   2.357 -0.1157  0.3026 -0.3129
  129DOPC   H4R17713   7.078   3.620   2.288  1.5152  1.6148  1.4172
  129DOPC   H4S17714   7.130   3.567   2.444 -0.5209  1.9114 -0.6069
  129DOPC   C2517715   6.933   3.509   2.416  0.4890 -0.3068 -1.1498
  129DOPC   H5R17716   6.879   3.445   2.343 -0.4636 -0.9920  0.1122
  129DOPC   H5S17717   6.869   3.599   2.424 -0.5933 -1.2058  0.7986
  129DOPC   C2617718   6.938   3.436   2.552  0.3433 -0.0726 -1.1471
  129DOPC   H6R17719   6.879   3.502   2.619  1.7859  2.6654 -2.3957
  129DOPC   H6S17720   7.044   3.435   2.588  0.0383 -2.4496 -0.1715
  129DOPC   C2717721   6.889   3.292   2.540  0.2990 -0.8512  0.7883
  129DOPC   H7R17722   6.968   3.229   2.587  1.1653  0.0097  0.5294
  129DOPC   H7S17723   6.889   3.263   2.433 -1.5011  1.7995 -0.0185
  129DOPC   C2817724   6.754   3.268   2.601  0.2183  0.4541 -0.3983
  129DOPC   H8R17725   6.686   3.336   2.545  0.9256  1.1098 -0.4810
  129DOPC   H8S17726   6.757   3.308   2.705 -0.7317  0.8359 -0.5069
  129DOPC   C2917727   6.720   3.125   2.580 -0.4000  0.6008  0.4890
  129DOPC   H9R17728   6.679   3.109   2.479 -1.9052 -0.2604  1.1933
  129DOPC  C21017729   6.746   3.021   2.659 -0.2007 -0.3532 -1.0071
  129DOPC  H10R17730   6.712   2.920   2.632  1.8833 -1.9460  1.7688
  129DOPC  C21117731   6.819   3.028   2.792  0.3917 -0.6814  0.5162
  129DOPC  H11R17732   6.835   3.136   2.816 -1.0966 -0.0438 -1.1119
  129DOPC  H11S17733   6.913   2.969   2.792  0.0638 -1.2153  1.4211
  129DOPC  C21217734   6.719   2.986   2.899  0.0087 -0.0535  0.2054
  129DOPC  H12R17735   6.666   2.892   2.871 -1.2110  0.8018 -0.4186
  129DOPC  H12S17736   6.640   3.063   2.898 -0.7934 -0.8592  0.1304
  129DOPC  C21317737   6.766   2.993   3.041 -0.1229  0.0600 -0.0523
  129DOPC  H13R17738   6.784   3.101   3.063 -1.6353  0.8481 -2.3137
  129DOPC  H13S17739   6.851   2.922   3.048 -1.0785 -1.2017 -0.7580
  129DOPC  C21417740   6.662   2.946   3.145  0.0512 -0.5736 -0.3850
  129DOPC  H14R17741   6.632   2.842   3.121  0.0806 -1.0266  1.3977
  129DOPC  H14S17742   6.579   3.019   3.137  1.3603  0.8830 -1.2859
  129DOPC  C21517743   6.723   2.958   3.278 -0.7975 -0.3191 -0.4859
  129DOPC  H15R17744   6.771   3.058   3.286  0.6400 -1.1340  2.6170
  129DOPC  H15S17745   6.807   2.888   3.297 -2.0168 -1.5983  0.3713
  129DOPC  C21617746   6.629   2.938   3.398  0.3171  1.3544  0.5305
  129DOPC  H16R17747   6.677   2.939   3.498  0.8105 -1.5537  0.4160
  129DOPC  H16S17748   6.588   2.834   3.389  0.6599  1.0487  2.2832
  129DOPC  C21717749   6.515   3.040   3.400 -0.2141  0.5569  0.1677
  129DOPC  H17R17750   6.449   3.048   3.310 -1.6608  1.2130  1.2503
  129DOPC  H17S17751   6.557   3.142   3.415  1.6602 -0.1518  0.0138
  129DOPC  C21817752   6.428   3.011   3.513  0.5254  0.4231  0.0478
  129DOPC  H18R17753   6.356   3.095   3.523  2.2243  1.8299  0.8698
  129DOPC  H18S17754   6.477   3.005   3.613  2.4321  3.2045 -0.6061
  129DOPC  H18T17755   6.366   2.922   3.487  0.2304  1.6494 -4.1957
  129DOPC   C3317756   7.807   3.174   2.364 -0.0171 -0.2853  1.0537
  129DOPC   H3X17757   7.816   3.281   2.335 -1.1226 -0.3397  0.4608
  129DOPC   H3Y17758   7.885   3.120   2.308 -1.2035  0.4657 -1.4651
  129DOPC   C3417759   7.832   3.172   2.522 -0.5014  0.7399 -1.1504
  129DOPC   H4X17760   7.851   3.066   2.549 -2.0896  0.4888 -0.9120
  129DOPC   H4Y17761   7.733   3.197   2.565  0.5035  1.7360  0.7349
  129DOPC   C3517762   7.936   3.277   2.566 -0.3112  0.4016 -0.0210
  129DOPC   H5X17763   7.897   3.370   2.518 -0.4771  0.2365 -0.2100
  129DOPC   H5Y17764   8.038   3.252   2.532  0.0145  2.0501 -0.3635
  129DOPC   C3617765   7.953   3.295   2.723  0.1205  0.5438  0.2084
  129DOPC   H6X17766   8.041   3.356   2.751  0.5109  1.1726 -2.1580
  129DOPC   H6Y17767   7.865   3.352   2.759 -0.0881  0.3470  0.0136
  129DOPC   C3717768   7.970   3.163   2.801 -0.3954  0.4405  0.0277
  129DOPC   H7X17769   7.883   3.096   2.781 -0.9684  1.3641 -0.6746
  129DOPC   H7Y17770   8.056   3.115   2.750 -0.8761  0.6645 -1.0250
  129DOPC   C3817771   7.991   3.169   2.952  0.3935  0.4222 -0.7358
  129DOPC   H8X17772   7.922   3.242   2.999 -1.4134 -3.0309  2.5609
  129DOPC   H8Y17773   8.097   3.199   2.967  0.4743 -0.3354  0.3941
  129DOPC   C3917774   7.960   3.039   3.031  0.3862 -0.5810  0.3179
  129DOPC   H9X17775   7.871   2.983   2.998 -1.4799  1.8655  0.8972
  129DOPC  C31017776   8.038   2.978   3.117 -0.4080  0.1462 -0.9958
  129DOPC  H10X17777   8.018   2.871   3.131 -0.4985 -0.0988 -2.8333
  129DOPC  C31117778   8.167   3.022   3.193  0.0875  0.3842  0.2664
  129DOPC  H11X17779   8.154   2.979   3.295 -2.2595  0.6497  0.1461
  129DOPC  H11Y17780   8.178   3.131   3.211  1.1416  0.3201  0.0751
  129DOPC  C31217781   8.298   2.972   3.127 -0.1722  1.2174  0.0314
  129DOPC  H12X17782   8.390   3.020   3.168 -0.8770  3.3407 -0.7551
  129DOPC  H12Y17783   8.296   2.999   3.019 -1.6648  0.5988 -0.1177
  129DOPC  C31317784   8.334   2.817   3.133 -0.1965 -0.2113  0.6594
  129DOPC  H13X17785   8.250   2.769   3.078  0.1262  1.6190 -1.5989
  129DOPC  H13Y17786   8.426   2.787   3.079 -1.5726 -1.6122 -1.0311
  129DOPC  C31417787   8.348   2.773   3.276  0.3079  0.6483  1.0739
  129DOPC  H14X17788   8.261   2.766   3.345 -0.0668 -1.3295  0.4715
  129DOPC  H14Y17789   8.372   2.665   3.272 -1.5485  0.0682  3.3502
  129DOPC  C31517790   8.463   2.847   3.352 -1.2179 -0.2429 -0.4736
  129DOPC  H15X17791   8.425   2.951   3.365 -0.8910 -0.2345  0.4841
  129DOPC  H15Y17792   0.019   2.860   3.288 -2.3313  0.6619 -1.9647
  129DOPC  C31617793   8.496   2.796   3.491  0.0488 -0.1795 -0.3389
  129DOPC  H16X17794   0.031   2.867   3.540  0.2136  0.4184 -1.3970
  129DOPC  H16Y17795   8.404   2.802   3.554 -0.8852  1.0520 -1.7432
  129DOPC  C31717796   0.026   2.658   3.482 -0.9899 -0.2536 -0.2515
  129DOPC  H17X17797   8.491   2.572   3.474 -0.2467 -1.5277  4.1637
  129DOPC  H17Y17798   0.085   2.667   3.388 -1.2615  0.8838 -0.3280
  129DOPC  C31817799   0.119   2.629   3.604  0.4347  0.4225  0.0144
  129DOPC  H18X17800   0.068   2.648   3.701  3.2788  4.7404  0.9504
  129DOPC  H18Y17801   0.175   2.534   3.595  0.6151  0.6252 -1.2449
  129DOPC  H18Z17802   0.201   2.704   3.605 -0.1772  1.1587 -1.2307
  130DOPC     N17803   0.134   4.255   1.463  0.4358  0.1199  0.3087
  130DOPC   C1217804   0.030   4.157   1.515 -0.2914  0.1843 -0.0285
  130DOPC  H12A17805   0.044   4.065   1.460 -0.3578 -1.3729  2.4081
  130DOPC  H12B17806   8.463   4.189   1.497 -0.6185 -1.3821 -1.1800
  130DOPC   C1317807   0.107   4.299   1.318  0.2614  0.0623 -0.0237
  130DOPC  H13A17808   0.113   4.211   1.255 -3.2192 -1.5172  1.6016
  130DOPC  H13B17809   0.004   4.329   1.309  0.0403 -0.8711 -0.7859
  130DOPC  H13C17810   0.175   4.375   1.282  1.7422 -1.8347 -1.5265
  130DOPC   C1417811   0.273   4.195   1.464 -0.0736 -0.4910 -0.3799
  130DOPC  H14A17812   0.277   4.127   1.548 -3.2249 -0.2511  0.1198
  130DOPC  H14B17813   0.290   4.130   1.380 -1.2780  0.3068 -1.2961
  130DOPC  H14C17814   0.348   4.272   1.466 -0.2404 -0.3228  1.8969
  130DOPC   C1517815   0.136   4.381   1.543 -0.3548  0.4873 -0.4376
  130DOPC  H15A17816   0.197   4.461   1.506 -0.6125  0.4266 -0.9962
  130DOPC  H15B17817   0.167   4.353   1.643  0.4353 -0.9690 -1.0641
  130DOPC  H15C17818   0.037   4.424   1.545  0.0120  1.3607  0.7272
  130DOPC   C1117819   0.045   4.125   1.666 -0.1597 -0.1317 -0.0100
  130DOPC  H11A17820   0.026   4.224   1.713  1.1010  0.5434 -0.8604
  130DOPC  H11B17821   8.496   4.057   1.692 -0.4564  0.4038  0.4514
  130DOPC     P17822   0.189   3.923   1.669  0.3408  0.0940  0.0543
  130DOPC   O1317823   0.323   3.913   1.610 -0.3006  0.3048  0.2073
  130DOPC   O1417824   0.083   3.871   1.580  0.2896 -0.2021  0.0212
  130DOPC   O1217825   0.174   4.073   1.717  0.0890  0.1732  0.5944
  130DOPC   O1117826   0.184   3.829   1.802 -0.2572 -0.5505  0.6087
  130DOPC    C117827   0.275   3.870   1.905 -0.0654  0.0219  0.0591
  130DOPC    HA17828   0.359   3.930   1.863  0.4925  0.7735  2.1106
  130DOPC    HB17829   0.316   3.773   1.938 -0.6802  0.2521  1.6020
  130DOPC    C217830   0.204   3.953   2.017  0.9329  1.4697  0.3233
  130DOPC    HS17831   0.168   4.048   1.972 -0.7813  0.7389  0.1035
  130DOPC   O2117832   0.295   3.968   2.123  0.0294  0.0367 -0.5006
  130DOPC   C2117833   0.393   4.054   2.109 -0.0090 -1.0880  0.2753
  130DOPC   O2217834   0.417   4.115   2.003  0.0376  0.3746 -0.2835
  130DOPC   C2217835   0.472   4.071   2.235  0.0133 -0.4849 -0.1047
  130DOPC   H2R17836   0.501   3.966   2.256  1.0617 -0.2883 -0.5426
  130DOPC   H2S17837   0.413   4.108   2.322  0.9947 -0.5250  0.5857
  130DOPC    C317838   0.085   3.883   2.083  0.2150  0.1775  0.3462
  130DOPC    HX17839   0.118   3.781   2.111 -1.7409  0.0198  2.3392
  130DOPC    HY17840   0.010   3.870   2.002  0.8251  0.4658 -0.2730
  130DOPC   O3117841   0.037   3.967   2.184  0.0076 -0.2135  0.2306
  130DOPC   C3117842   8.445   3.956   2.228 -0.0312  0.2380 -0.1330
  130DOPC   O3217843   8.375   3.863   2.198 -0.4627  0.4156  0.0687
  130DOPC   C3217844   8.403   4.072   2.313 -0.3013 -0.1762 -0.2750
  130DOPC   H2X17845   8.398   4.163   2.250 -0.6073  1.2801  1.7628
  130DOPC   H2Y17846   8.302   4.042   2.347 -0.5143 -0.9743 -1.5466
  130DOPC   C2317847   0.596   4.167   2.228 -0.1113  0.1116  0.6688
  130DOPC   H3R17848   0.553   4.270   2.232 -0.5714 -0.0944  1.2112
  130DOPC   H3S17849   0.652   4.146   2.135  0.6799 -1.6346  1.5029
  130DOPC   C2417850   0.685   4.164   2.349  0.5383  0.0110  0.3689
  130DOPC   H4R17851   0.635   4.148   2.447 -0.1918  1.6174  0.2879
  130DOPC   H4S17852   0.725   4.267   2.355  0.5937  0.0952 -1.0981
  130DOPC   C2517853   0.803   4.053   2.332 -0.0716 -0.0478  0.1769
  130DOPC   H5R17854   0.852   4.046   2.233 -0.8887 -0.5192 -0.2072
  130DOPC   H5S17855   0.755   3.956   2.356  0.1906 -0.4301 -0.7772
  130DOPC   C2617856   0.912   4.071   2.434  0.6415  0.0598 -0.7765
  130DOPC   H6R17857   0.972   3.978   2.442  0.9799  0.2549 -1.0300
  130DOPC   H6S17858   0.862   4.090   2.531 -0.3355 -1.9920 -0.8082
  130DOPC   C2717859   1.014   4.181   2.405 -0.5308  0.2383 -0.8366
  130DOPC   H7R17860   0.975   4.284   2.389 -0.2727  0.1154 -2.4388
  130DOPC   H7S17861   1.066   4.153   2.311 -0.8311  0.7047 -1.1462
  130DOPC   C2817862   1.120   4.192   2.517  0.0638  0.2635 -0.5781
  130DOPC   H8R17863   1.159   4.093   2.547 -1.2046  0.0782  0.5721
  130DOPC   H8S17864   1.066   4.235   2.605  0.8296 -1.3246  0.7135
  130DOPC   C2917865   1.231   4.281   2.475  0.5045 -0.0411 -0.1737
  130DOPC   H9R17866   1.281   4.249   2.382  1.8132  0.2732  0.4042
  130DOPC  C21017867   1.270   4.394   2.538 -1.4160  0.9015 -0.0740
  130DOPC  H10R17868   1.345   4.461   2.493 -1.6069  0.0579 -1.7221
  130DOPC  C21117869   1.223   4.459   2.668 -0.1819  0.7538  0.8420
  130DOPC  H11R17870   1.113   4.455   2.686 -0.1316  0.2844  1.0509
  130DOPC  H11S17871   1.258   4.563   2.683 -1.4090  0.9297  2.9473
  130DOPC  C21217872   1.275   4.379   2.798  0.4586 -0.3423 -0.5224
  130DOPC  H12R17873   1.249   4.272   2.809  0.0455 -0.0376  2.0823
  130DOPC  H12S17874   1.238   4.437   2.885  1.7576  0.0320 -0.1948
  130DOPC  C21317875   1.427   4.403   2.806  0.1900  0.3098 -0.5906
  130DOPC  H13R17876   1.449   4.512   2.806 -1.0719  0.5765 -0.2228
  130DOPC  H13S17877   1.477   4.368   2.713 -1.4799  0.7738 -1.7126
  130DOPC  C21417878   1.485   4.350   2.939 -0.7396 -0.1643 -0.3420
  130DOPC  H14R17879   1.432   4.380   3.032  2.0368 -2.5869  2.2491
  130DOPC  H14S17880   1.591   4.381   2.948 -0.9650  0.6008 -0.3041
  130DOPC  C21517881   1.487   4.194   2.944  0.8590  0.1561  0.2996
  130DOPC  H15R17882   1.531   4.160   2.848 -0.0168  1.1697 -0.4828
  130DOPC  H15S17883   1.381   4.161   2.941  0.6519  0.7187  1.1076
  130DOPC  C21617884   1.567   4.126   3.063  0.2764 -0.3837  0.0288
  130DOPC  H16R17885   1.551   4.184   3.157  1.4576  2.8220 -1.5824
  130DOPC  H16S17886   1.677   4.131   3.044  0.0703  3.0235 -0.9168
  130DOPC  C21717887   1.536   3.979   3.087 -0.8991  0.2814 -0.0137
  130DOPC  H17R17888   1.541   3.934   2.985 -0.2987 -0.3183  0.2655
  130DOPC  H17S17889   1.434   3.958   3.124 -1.1044  0.6136 -0.3847
  130DOPC  C21817890   1.644   3.903   3.165 -0.4165 -0.0902 -0.5098
  130DOPC  H18R17891   1.667   3.944   3.266 -0.6434 -0.1827 -0.4167
  130DOPC  H18S17892   1.736   3.904   3.104  0.2611  1.4392  0.4813
  130DOPC  H18T17893   1.615   3.796   3.175 -0.8981 -0.0574 -1.4370
  130DOPC   C3317894   8.491   4.102   2.434  0.1657 -0.1667 -0.0057
  130DOPC   H3X17895   8.461   4.203   2.469  0.3479  0.9427 -2.8021
  130DOPC   H3Y17896   0.063   4.109   2.407  0.6104  2.3577  2.0131
  130DOPC   C3417897   8.463   4.003   2.549 -0.1617  0.0903 -0.2650
  130DOPC   H4X17898   8.476   3.905   2.499  0.6927  0.6074 -1.1015
  130DOPC   H4Y17899   8.355   4.003   2.572 -0.6945  0.5709 -2.4772
  130DOPC   C3517900   0.020   4.038   2.667 -0.0470  0.4840  0.6615
  130DOPC   H5X17901   0.015   4.143   2.702 -5.5767  0.7551  0.0584
  130DOPC   H5Y17902   0.127   4.017   2.647 -0.4835 -0.1533 -1.1606
  130DOPC   C3617903   8.519   3.952   2.801 -0.2451  0.6137 -0.4324
  130DOPC   H6X17904   8.409   3.969   2.811 -0.4968 -0.9946 -0.1188
  130DOPC   H6Y17905   8.525   3.842   2.789 -1.2061 -0.3217  4.9703
  130DOPC   C3717906   0.054   3.988   2.931  0.5478  0.2631 -1.0075
  130DOPC   H7X17907   0.165   3.986   2.922  0.5168 -0.2791 -1.2828
  130DOPC   H7Y17908   0.019   4.090   2.959 -0.0355 -0.5876  1.6285
  130DOPC   C3817909   0.001   3.917   3.060  0.3170  0.1407 -0.2539
  130DOPC   H8X17910   8.427   3.921   3.078 -0.0082 -2.7096 -1.1051
  130DOPC   H8Y17911   0.050   3.969   3.146  1.7066 -2.9557  0.9558
  130DOPC   C3917912   0.050   3.777   3.067  0.9578  0.5364 -0.6689
  130DOPC   H9X17913   8.504   3.711   3.035  0.0363  1.5599 -0.4773
  130DOPC  C31017914   0.172   3.727   3.099  0.3718 -0.7642 -0.5876
  130DOPC  H10X17915   0.186   3.620   3.115  1.4569 -0.6077 -0.3945
  130DOPC  C31117916   0.293   3.815   3.133  0.4792 -0.7139 -0.4670
  130DOPC  H11X17917   0.319   3.803   3.241  1.7432  2.2817 -0.3365
  130DOPC  H11Y17918   0.270   3.923   3.126 -0.5696 -0.8629  0.3027
  130DOPC  C31217919   0.417   3.777   3.051 -0.3661  0.0243  0.0700
  130DOPC  H12X17920   0.494   3.857   3.040 -0.8011  0.3924 -0.3744
  130DOPC  H12Y17921   0.375   3.772   2.948 -0.8647 -0.2022  0.2799
  130DOPC  C31317922   0.481   3.641   3.076 -0.6168  0.3591 -0.5234
  130DOPC  H13X17923   0.528   3.625   3.175  0.2427  0.8833 -0.8320
  130DOPC  H13Y17924   0.399   3.569   3.058 -0.7940  0.4433 -0.0428
  130DOPC  C31417925   0.584   3.605   2.965 -0.1909  0.3507 -0.1130
  130DOPC  H14X17926   0.558   3.631   2.860 -0.6010 -0.6039 -0.2623
  130DOPC  H14Y17927   0.680   3.661   2.976  0.7711 -1.5153  1.6674
  130DOPC  C31517928   0.623   3.460   2.969  0.6325  0.2854 -0.5444
  130DOPC  H15X17929   0.539   3.388   2.977  1.6287 -0.9031 -0.4223
  130DOPC  H15Y17930   0.689   3.442   3.056  0.5955 -1.9531 -0.9326
  130DOPC  C31617931   0.704   3.407   2.850  0.0911 -0.4063 -0.0265
  130DOPC  H16X17932   0.757   3.493   2.802  0.5229 -1.1424 -0.8938
  130DOPC  H16Y17933   0.782   3.336   2.885  2.8845  0.1036 -4.4297
  130DOPC  C31717934   0.625   3.337   2.734 -0.3340 -0.8037 -0.5377
  130DOPC  H17X17935   0.553   3.265   2.779 -1.0544 -1.2315 -2.2937
  130DOPC  H17Y17936   0.563   3.415   2.686  3.0933  2.3298 -0.3145
  130DOPC  C31817937   0.721   3.273   2.633  0.6191 -0.3928  0.4044
  130DOPC  H18X17938   0.677   3.215   2.550 -2.0038 -0.7611  1.9414
  130DOPC  H18Y17939   0.778   3.357   2.588 -0.4463 -0.0671 -0.3663
  130DOPC  H18Z17940   0.794   3.206   2.685  2.2464  0.4566 -0.6909
  131DOPC     N17941   5.765   3.851   1.984 -0.2072  0.1958  0.4985
  131DOPC   C1217942   5.810   3.995   1.963  0.4039 -0.2410  0.3679
  131DOPC  H12A17943   5.787   4.021   1.861 -0.8536 -0.4222  0.5964
  131DOPC  H12B17944   5.918   4.001   1.960  0.5328 -2.0998 -2.2766
  131DOPC   C1317945   5.879   3.759   1.946  0.2587 -0.3436  0.7590
  131DOPC  H13A17946   5.972   3.780   1.998 -0.2462  1.4988  0.9735
  131DOPC  H13B17947   5.852   3.655   1.958  1.4549 -0.8010 -0.2618
  131DOPC  H13C17948   5.890   3.774   1.840 -1.4644  0.3750  0.6460
  131DOPC   C1417949   5.644   3.825   1.907  0.8996  0.2045  0.5146
  131DOPC  H14A17950   5.563   3.889   1.939  1.3916  1.6413 -0.9590
  131DOPC  H14B17951   5.647   3.834   1.799 -2.4139 -3.0217 -0.0638
  131DOPC  H14C17952   5.623   3.720   1.919  2.5690  0.0038  1.9866
  131DOPC   C1517953   5.733   3.830   2.126 -0.2117 -0.3741 -0.7680
  131DOPC  H15A17954   5.722   3.725   2.144  0.7614  0.0339  3.0712
  131DOPC  H15B17955   5.643   3.886   2.150  0.9769  0.7427  1.3543
  131DOPC  H15C17956   5.814   3.856   2.192  0.3551 -1.0532 -1.1886
  131DOPC   C1117957   5.750   4.111   2.045 -0.1620  1.0058  0.6803
  131DOPC  H11A17958   5.771   4.105   2.154  2.7412  1.0533  0.1850
  131DOPC  H11B17959   5.813   4.194   2.007  1.4507  0.3715  1.8457
  131DOPC     P17960   5.556   4.195   1.895 -0.2490  0.0970 -0.0115
  131DOPC   O1317961   5.546   4.094   1.791 -0.6167  0.4277  0.5308
  131DOPC   O1417962   5.631   4.317   1.875 -0.2388  0.4681  0.4373
  131DOPC   O1217963   5.610   4.126   2.022  0.4798 -0.0588  0.3759
  131DOPC   O1117964   5.409   4.238   1.920  0.3875  0.1514  0.0261
  131DOPC    C117965   5.317   4.182   2.005 -0.2918  0.2068 -0.2169
  131DOPC    HA17966   5.344   4.078   2.031  0.1912  0.6196  1.0053
  131DOPC    HB17967   5.215   4.185   1.961 -0.4247  0.5519  0.1029
  131DOPC    C217968   5.295   4.259   2.137 -0.2209  0.3645 -0.2096
  131DOPC    HS17969   5.260   4.360   2.109  0.2794  0.2610 -1.2701
  131DOPC   O2117970   5.425   4.274   2.205 -0.3349 -0.5392 -0.0681
  131DOPC   C2117971   5.464   4.402   2.225  0.1845 -0.3401 -0.1772
  131DOPC   O2217972   5.396   4.502   2.203  0.2756 -0.0616 -0.6027
  131DOPC   C2217973   5.594   4.399   2.317 -0.5276 -0.2643  0.4067
  131DOPC   H2R17974   5.670   4.399   2.236 -1.8015 -0.7920 -0.8332
  131DOPC   H2S17975   5.589   4.304   2.375 -1.3374 -1.6777 -1.8555
  131DOPC    C317976   5.187   4.182   2.218  0.0126 -0.2673 -0.2199
  131DOPC    HX17977   5.220   4.079   2.245 -1.3823 -0.0671  2.6179
  131DOPC    HY17978   5.095   4.174   2.156  0.6940 -0.5024 -1.2303
  131DOPC   O3117979   5.138   4.254   2.337  0.0952  0.0559  0.6302
  131DOPC   C3117980   5.217   4.246   2.441  1.1641  0.7138  0.5694
  131DOPC   O3217981   5.311   4.175   2.458  0.3429  0.5169 -0.4987
  131DOPC   C3217982   5.164   4.345   2.544 -0.3471  0.0891 -0.0741
  131DOPC   H2X17983   5.202   4.447   2.523  1.9802 -0.4142  1.3502
  131DOPC   H2Y17984   5.054   4.329   2.535 -0.1802 -0.6595 -0.9163
  131DOPC   C2317985   5.605   4.524   2.413  0.2294  0.2130 -0.0895
  131DOPC   H3R17986   5.567   4.614   2.359  2.1474 -0.5031 -2.8842
  131DOPC   H3S17987   5.712   4.549   2.431 -0.0371  0.4209  1.2497
  131DOPC   C2417988   5.536   4.497   2.546 -0.3215  0.5423 -0.7049
  131DOPC   H4R17989   5.553   4.395   2.587 -0.8729  0.6227 -0.2559
  131DOPC   H4S17990   5.426   4.501   2.527 -0.6317 -1.2282  0.4485
  131DOPC   C2517991   5.586   4.609   2.648  0.1664  0.0576  0.3438
  131DOPC   H5R17992   5.540   4.710   2.639 -0.1920 -0.0407  0.9812
  131DOPC   H5S17993   5.695   4.604   2.627 -0.2218  0.7903 -2.2057
  131DOPC   C2617994   5.562   4.567   2.788 -0.7319  0.3265 -0.3449
  131DOPC   H6R17995   5.454   4.578   2.812 -0.5753  0.7352  0.1952
  131DOPC   H6S17996   5.600   4.465   2.810  0.5430  0.2147 -2.7956
  131DOPC   C2717997   5.639   4.661   2.883  0.2791 -0.0446  0.2029
  131DOPC   H7R17998   5.622   4.769   2.859 -2.9400 -0.4755  0.1070
  131DOPC   H7S17999   5.746   4.636   2.872  0.4101  0.7296 -0.3865
  131DOPC   C2818000   5.597   4.639   3.027  0.0919 -0.0099  0.7314
  131DOPC   H8R18001   5.673   4.684   3.094  1.4980 -0.5713 -0.4486
  131DOPC   H8S18002   5.604   4.533   3.059  0.9544 -0.0527  0.4139
  131DOPC   C2918003   5.464   4.692   3.074 -0.8867  0.9370 -0.0533
  131DOPC   H9R18004   5.378   4.635   3.034 -0.5299  1.6080 -1.8990
  131DOPC  C21018005   5.442   4.800   3.151  0.2389 -0.2725 -0.2617
  131DOPC  H10R18006   5.339   4.829   3.176  0.3154  1.4494 -1.7622
  131DOPC  C21118007   5.547   4.907   3.190 -0.1251 -0.1778 -0.1187
  131DOPC  H11R18008   5.511   5.009   3.163  1.0168  0.3351  0.2372
  131DOPC  H11S18009   5.635   4.887   3.126 -0.2699  0.4591 -0.5257
  131DOPC  C21218010   5.593   4.921   3.339  0.1574  0.3409  0.1456
  131DOPC  H12R18011   5.665   4.836   3.346  0.2607  0.2698 -1.4585
  131DOPC  H12S18012   5.505   4.911   3.407 -1.5924  0.4022 -1.9903
  131DOPC  C21318013   5.660   5.054   3.386  0.0488 -0.5294  0.0920
  131DOPC  H13R18014   5.698   5.041   3.490 -1.1746  0.5505  0.6967
  131DOPC  H13S18015   5.599   5.146   3.398  0.0328  0.3127 -4.5810
  131DOPC  C21418016   5.773   5.086   3.291  0.2477  0.4050 -0.0949
  131DOPC  H14R18017   5.732   5.135   3.201 -0.9720  3.4634  1.9551
  131DOPC  H14S18018   5.812   4.985   3.263  0.4818 -0.2171  2.2057
  131DOPC  C21518019   5.888   5.169   3.349 -0.2595 -0.4206 -0.6192
  131DOPC  H15R18020   5.964   5.109   3.404 -0.9572  1.2975  2.4115
  131DOPC  H15S18021   5.838   5.227   3.429  0.0187 -1.5880  0.4341
  131DOPC  C21618022   5.965   5.265   3.254 -0.3201  0.0263  0.3922
  131DOPC  H16R18023   6.040   5.335   3.298  1.0207  0.4883 -2.3906
  131DOPC  H16S18024   5.886   5.315   3.195  0.9995  1.3301 -0.3375
  131DOPC  C21718025   6.046   5.188   3.149 -0.1522  0.3132  0.5463
  131DOPC  H17R18026   6.093   5.252   3.071  2.3767  0.6762  2.2546
  131DOPC  H17S18027   5.986   5.113   3.093 -0.5571 -1.0836  2.7266
  131DOPC  C21818028   6.168   5.102   3.197  0.3627 -0.3018  0.3372
  131DOPC  H18R18029   6.190   5.023   3.121 -3.3952 -0.3161 -0.9243
  131DOPC  H18S18030   6.137   5.051   3.291 -1.1410 -0.8276 -0.4076
  131DOPC  H18T18031   6.258   5.166   3.206 -0.2431  0.5135  0.6879
  131DOPC   C3318032   5.217   4.317   2.685  0.1626 -0.4087  0.0983
  131DOPC   H3X18033   5.327   4.303   2.694  0.3699  0.2789 -1.0967
  131DOPC   H3Y18034   5.166   4.221   2.706  0.4663 -1.3068 -2.7691
  131DOPC   C3418035   5.175   4.422   2.783 -0.0320  0.3092  0.5713
  131DOPC   H4X18036   5.066   4.433   2.764  0.2679  1.9402 -0.3364
  131DOPC   H4Y18037   5.215   4.524   2.765 -0.7743  0.5035 -0.0210
  131DOPC   C3518038   5.192   4.381   2.927 -1.0476  0.2475  0.7336
  131DOPC   H5X18039   5.301   4.381   2.948 -1.0667  3.2470  1.2473
  131DOPC   H5Y18040   5.165   4.274   2.944  4.1188 -1.1059  2.3332
  131DOPC   C3618041   5.132   4.479   3.029 -0.1163 -0.2188 -0.1106
  131DOPC   H6X18042   5.148   4.584   2.999  1.6700 -0.3742  0.1807
  131DOPC   H6Y18043   5.023   4.486   3.007  0.3513  3.0224 -2.0840
  131DOPC   C3718044   5.153   4.454   3.178  0.0514 -0.4495 -0.4743
  131DOPC   H7X18045   5.070   4.382   3.194 -3.0402  2.8041 -0.7479
  131DOPC   H7Y18046   5.246   4.402   3.211  1.6726  2.6030  0.1221
  131DOPC   C3818047   5.124   4.575   3.273  0.3112 -0.3189  0.4010
  131DOPC   H8X18048   5.037   4.628   3.228 -0.2262 -0.9014  0.7433
  131DOPC   H8Y18049   5.200   4.656   3.259 -1.5339  1.6694  1.2874
  131DOPC   C3918050   5.110   4.536   3.418 -0.1330 -0.4433 -0.0123
  131DOPC   H9X18051   5.021   4.473   3.433 -1.3399  1.6601  2.4302
  131DOPC  C31018052   5.206   4.557   3.515 -0.3350 -0.1234 -0.7654
  131DOPC  H10X18053   5.191   4.520   3.618  2.2095  2.2491  0.5772
  131DOPC  C31118054   5.335   4.623   3.492  1.1721  0.1736 -1.1699
  131DOPC  H11X18055   5.371   4.668   3.587  0.6625  1.4186 -1.5527
  131DOPC  H11Y18056   5.325   4.710   3.424 -0.7492  0.0425 -1.1279
  131DOPC  C31218057   5.451   4.548   3.434  1.2690 -0.1928  1.0599
  131DOPC  H12X18058   5.542   4.611   3.434  2.2264 -1.1611 -3.7767
  131DOPC  H12Y18059   5.430   4.531   3.326  0.5550  0.8742  1.0153
  131DOPC  C31318060   5.493   4.421   3.511 -0.2718  0.5301  0.0892
  131DOPC  H13X18061   5.410   4.347   3.520  1.6080 -1.7018  0.2973
  131DOPC  H13Y18062   5.572   4.359   3.463 -1.0244 -1.1524  0.9088
  131DOPC  C31418063   5.546   4.454   3.653 -0.2368  0.6539  0.2262
  131DOPC  H14X18064   5.641   4.512   3.653 -0.4038  0.9335  0.8863
  131DOPC  H14Y18065   5.480   4.514   3.719 -1.1560  0.3026 -0.3586
  131DOPC  C31518066   5.568   4.319   3.716 -0.1928 -0.2514 -0.1105
  131DOPC  H15X18067   5.654   4.324   3.787  1.4201  0.8701 -2.0268
  131DOPC  H15Y18068   5.595   4.242   3.641 -1.3650  0.2227 -1.0462
  131DOPC  C31618069   5.454   4.269   3.802 -0.5180 -0.8042 -0.5523
  131DOPC  H16X18070   5.428   4.354   3.868  2.3913 -1.0412  1.0661
  131DOPC  H16Y18071   5.374   4.234   3.732  0.0725 -3.8622  0.1532
  131DOPC  C31718072   5.497   4.146   3.888 -0.3302  0.6541  1.1178
  131DOPC  H17X18073   5.405   4.104   3.934 -1.3740 -0.8541 -2.0406
  131DOPC  H17Y18074   5.543   4.068   3.824 -1.1480  1.1785 -0.1685
  131DOPC  C31818075   5.600   4.183   3.999 -0.0972  0.1599  0.5177
  131DOPC  H18X18076   5.557   4.260   4.067 -2.0923  0.3885 -0.9066
  131DOPC  H18Y18077   5.646   4.104   4.062 -0.8881 -1.7059 -1.1473
  131DOPC  H18Z18078   5.696   4.221   3.959  0.0055  2.1940  2.5164
  132DOPC     N18079   7.456   0.641   1.628 -0.2902  0.2212 -0.0044
  132DOPC   C1218080   7.552   0.535   1.676 -0.8537  0.3997  0.2837
  132DOPC  H12A18081   7.506   0.465   1.745 -0.2187 -1.2800 -0.9390
  132DOPC  H12B18082   7.637   0.582   1.721  1.3796 -3.3669  0.4518
  132DOPC   C1318083   7.384   0.683   1.751  0.2755  0.4938  0.4915
  132DOPC  H13A18084   7.335   0.597   1.795 -0.6634  0.5596 -0.4048
  132DOPC  H13B18085   7.445   0.725   1.830 -0.7895 -1.3124  2.3710
  132DOPC  H13C18086   7.311   0.758   1.727  1.6105  1.4370 -0.7772
  132DOPC   C1418087   7.361   0.577   1.534  0.5728 -0.3558 -0.2064
  132DOPC  H14A18088   7.308   0.651   1.476 -0.0323 -0.1409  0.6142
  132DOPC  H14B18089   7.410   0.503   1.473  0.5260  0.6029 -1.4499
  132DOPC  H14C18090   7.293   0.521   1.597  0.3810 -1.3963 -1.3035
  132DOPC   C1518091   7.526   0.755   1.562  0.2616 -0.4499  0.2114
  132DOPC  H15A18092   7.609   0.789   1.622 -1.2344  1.6465  1.1995
  132DOPC  H15B18093   7.449   0.831   1.557  0.3367 -0.1268  2.8919
  132DOPC  H15C18094   7.550   0.745   1.457 -0.9908  1.2054 -0.2819
  132DOPC   C1118095   7.629   0.455   1.557 -0.2177 -0.7136 -0.6848
  132DOPC  H11A18096   7.666   0.533   1.487 -0.0475  0.8027  1.0280
  132DOPC  H11B18097   7.732   0.423   1.585  1.0351  2.2457 -1.4920
  132DOPC     P18098   7.536   0.211   1.522  0.1846  0.4700 -0.2341
  132DOPC   O1318099   7.625   0.117   1.448  0.0512 -0.6234  0.0607
  132DOPC   O1418100   7.392   0.181   1.522 -0.3077 -0.2576  0.5988
  132DOPC   O1218101   7.555   0.364   1.477  0.0840  0.1725 -0.0452
  132DOPC   O1118102   7.583   0.210   1.674  0.0423 -0.6744  0.1545
  132DOPC    C118103   7.549   0.105   1.767 -0.8900  0.2796  0.0308
  132DOPC    HA18104   7.631   0.095   1.841 -1.0276 -0.0657  0.1410
  132DOPC    HB18105   7.525   0.009   1.717 -3.1641 -0.0282  1.5516
  132DOPC    C218106   7.429   0.137   1.852  0.3527 -1.0221  0.2891
  132DOPC    HS18107   7.342   0.142   1.783  0.2738  1.0667  0.4822
  132DOPC   O2118108   7.455   0.255   1.918  0.5771 -0.4770 -0.4768
  132DOPC   C2118109   7.354   0.345   1.925 -0.2986  0.0584  0.8691
  132DOPC   O2218110   7.262   0.356   1.847  0.1455 -0.2502 -0.1380
  132DOPC   C2218111   7.393   0.437   2.037 -0.3396 -0.3511 -0.1786
  132DOPC   H2R18112   7.481   0.492   1.997  0.7116 -2.0621 -0.3324
  132DOPC   H2S18113   7.422   0.378   2.126  2.7697 -0.7812 -1.3567
  132DOPC    C318114   7.405   0.020   1.950  0.1041  0.2438 -0.7844
  132DOPC    HX18115   7.505   0.011   1.998  1.0692  0.3426 -2.6701
  132DOPC    HY18116   7.379   8.467   1.887 -2.4831  0.1051  0.3936
  132DOPC   O3118117   7.298   0.040   2.046 -0.4055 -0.2718 -0.2773
  132DOPC   C3118118   7.177   0.055   1.995 -0.2065 -0.6034 -0.0123
  132DOPC   O3218119   7.156   0.033   1.877 -0.0193  0.0069  1.4574
  132DOPC   C3218120   7.091   0.085   2.108  0.0175 -0.1760 -0.2394
  132DOPC   H2X18121   7.058   8.521   2.145 -1.6011 -2.0542 -5.6687
  132DOPC   H2Y18122   7.149   0.137   2.187 -1.5687  0.9365  0.2433
  132DOPC   C2318123   7.279   0.540   2.063 -0.1728  0.3576 -0.1410
  132DOPC   H3R18124   7.188   0.487   2.098  0.8253 -1.1050  0.3564
  132DOPC   H3S18125   7.249   0.587   1.967  0.1131  0.8871  0.0271
  132DOPC   C2418126   7.316   0.648   2.158  0.7620 -0.1067  0.0358
  132DOPC   H4R18127   7.251   0.738   2.150  0.1260 -0.2961  2.4442
  132DOPC   H4S18128   7.413   0.687   2.118  0.0153 -0.0339 -1.8036
  132DOPC   C2518129   7.333   0.606   2.306 -0.1481 -0.0451  0.6463
  132DOPC   H5R18130   7.395   0.684   2.355 -0.3757  0.0669  0.7573
  132DOPC   H5S18131   7.398   0.516   2.309 -1.0548 -0.6801  1.8903
  132DOPC   C2618132   7.203   0.595   2.390 -0.3777 -0.1815  0.4193
  132DOPC   H6R18133   7.148   0.505   2.355  0.5426 -1.0765  1.1770
  132DOPC   H6S18134   7.140   0.686   2.385 -1.1611 -0.5536  2.3431
  132DOPC   C2718135   7.245   0.577   2.536 -0.7225  0.7498 -0.2160
  132DOPC   H7R18136   7.157   0.582   2.604 -0.2177  1.2589  0.4096
  132DOPC   H7S18137   7.316   0.657   2.564 -0.2651  0.2418  0.1038
  132DOPC   C2818138   7.305   0.437   2.564  0.3074  0.4527 -0.4921
  132DOPC   H8R18139   7.372   0.450   2.651 -2.2350  0.4526  1.5772
  132DOPC   H8S18140   7.374   0.403   2.484 -0.5963 -1.4064 -0.5457
  132DOPC   C2918141   7.201   0.337   2.579 -0.5769  0.2113 -0.1308
  132DOPC   H9R18142   7.109   0.361   2.634  0.0489 -0.6744  1.3797
  132DOPC  C21018143   7.203   0.217   2.519  0.2152 -0.1167  0.0317
  132DOPC  H10R18144   7.114   0.153   2.530 -0.5859  0.7915 -0.9890
  132DOPC  C21118145   7.307   0.144   2.441  0.4095 -0.4861  0.1094
  132DOPC  H11R18146   7.385   0.216   2.406  0.2485 -0.2272  0.2795
  132DOPC  H11S18147   7.259   0.098   2.352 -1.9279  1.4820  0.2536
  132DOPC  C21218148   7.364   0.035   2.534 -0.7587  0.7569 -0.2501
  132DOPC  H12R18149   7.281   8.505   2.568 -0.2415  0.6809  0.9073
  132DOPC  H12S18150   7.411   0.085   2.621  0.9845 -0.3687 -0.4845
  132DOPC  C21318151   7.458   8.477   2.458 -0.0281  0.3783  0.1840
  132DOPC  H13R18152   7.535   8.530   2.398 -2.0723  2.0989 -1.0708
  132DOPC  H13S18153   7.413   8.419   2.374  0.1518  0.1407  0.2502
  132DOPC  C21418154   7.539   8.373   2.546 -0.8868 -0.6014 -0.2400
  132DOPC  H14R18155   7.634   8.406   2.592  0.1340 -0.2054 -2.4909
  132DOPC  H14S18156   7.568   8.299   2.469 -1.0828  1.4886 -2.4533
  132DOPC  C21518157   7.463   8.293   2.648 -0.5698 -0.0463 -0.1586
  132DOPC  H15R18158   7.378   8.255   2.586  0.0209 -2.6494  0.5508
  132DOPC  H15S18159   7.430   8.362   2.729  0.3905  0.9601 -0.5947
  132DOPC  C21618160   7.536   8.174   2.712  0.1368  0.3600  0.3956
  132DOPC  H16R18161   7.555   8.099   2.632 -0.3139  2.1135 -1.4393
  132DOPC  H16S18162   7.461   8.129   2.781  1.8222 -1.8037  0.9146
  132DOPC  C21718163   7.654   8.212   2.805  0.2785 -0.4315  1.0464
  132DOPC  H17R18164   7.621   8.306   2.854  0.9090  1.9595 -2.6974
  132DOPC  H17S18165   7.737   8.237   2.735 -1.7816  1.7089 -0.7868
  132DOPC  C21818166   7.690   8.104   2.898 -0.3249  0.9001 -0.4751
  132DOPC  H18R18167   7.770   8.138   2.968 -0.6511 -1.1101  0.9638
  132DOPC  H18S18168   7.729   8.013   2.848 -0.1710  0.6563  0.0709
  132DOPC  H18T18169   7.610   8.077   2.970  1.3632 -0.9286  0.8351
  132DOPC   C3318170   6.972   0.172   2.062  0.5547  0.5651 -0.2848
  132DOPC   H3X18171   6.917   0.115   1.984 -2.0183  0.0744  1.7470
  132DOPC   H3Y18172   7.004   0.273   2.028 -0.3923  1.1463  0.5159
  132DOPC   C3418173   6.863   0.194   2.172  0.4269 -0.8621 -0.9572
  132DOPC   H4X18174   6.806   0.103   2.200 -1.2530  0.2597 -0.5915
  132DOPC   H4Y18175   6.791   0.252   2.111 -0.6464 -0.8465  0.2864
  132DOPC   C3518176   6.917   0.283   2.283 -0.1657 -0.4014  0.3367
  132DOPC   H5X18177   6.959   0.377   2.242 -2.0756  1.4957  2.4283
  132DOPC   H5Y18178   6.989   0.229   2.349  0.5398 -0.5298 -0.5138
  132DOPC   C3618179   6.794   0.328   2.376  0.0742  0.9796  0.5648
  132DOPC   H6X18180   6.712   0.368   2.311  0.9018 -0.8512 -1.7266
  132DOPC   H6Y18181   6.769   0.236   2.432  2.5487  0.3346  0.7064
  132DOPC   C3718182   6.843   0.439   2.478  0.2057 -0.1322  0.0514
  132DOPC   H7X18183   6.923   0.388   2.535 -0.6744 -0.5630  0.9237
  132DOPC   H7Y18184   6.870   0.525   2.412 -0.9839  0.7827  0.7244
  132DOPC   C3818185   6.733   0.498   2.569 -0.1568  0.1306 -0.4412
  132DOPC   H8X18186   6.680   0.418   2.624 -2.8775  0.8291 -1.8800
  132DOPC   H8Y18187   6.657   0.539   2.500 -1.5504 -0.1056  0.9083
  132DOPC   C3918188   6.778   0.609   2.663 -0.2152 -0.1537  0.6788
  132DOPC   H9X18189   6.778   0.706   2.610 -0.4124 -1.4357 -1.8177
  132DOPC  C31018190   6.800   0.594   2.795  0.8816 -0.4574  0.0785
  132DOPC  H10X18191   6.842   0.673   2.859  3.8383 -0.6525 -1.4512
  132DOPC  C31118192   6.792   0.461   2.866  1.1581 -0.1422  0.3754
  132DOPC  H11X18193   6.809   0.384   2.788 -0.4040 -0.6158  0.4684
  132DOPC  H11Y18194   6.694   0.447   2.917  1.1961 -0.9234  0.2504
  132DOPC  C31218195   6.895   0.433   2.974  0.8266  0.3945 -0.2848
  132DOPC  H12X18196   6.871   0.332   3.015 -3.8160  1.5708  0.5123
  132DOPC  H12Y18197   6.896   0.506   3.058  0.8156 -0.2752  0.3144
  132DOPC  C31318198   7.040   0.417   2.911  0.1869  0.0335 -0.3205
  132DOPC  H13X18199   7.033   0.340   2.830  0.9636  1.2659 -1.6014
  132DOPC  H13Y18200   7.066   0.510   2.856 -0.9550 -0.4130 -1.6992
  132DOPC  C31418201   7.142   0.386   3.017  0.1688 -0.0152  0.1429
  132DOPC  H14X18202   7.116   0.447   3.106  2.6594  0.4950  0.5997
  132DOPC  H14Y18203   7.137   0.277   3.039  2.6252 -0.3855 -0.8186
  132DOPC  C31518204   7.282   0.423   2.962  0.6884  0.1725 -0.5851
  132DOPC  H15X18205   7.293   0.533   2.973  1.3175  0.1255 -0.7126
  132DOPC  H15Y18206   7.293   0.392   2.856  1.0808 -2.5104  0.1698
  132DOPC  C31618207   7.390   0.355   3.055 -0.0326  0.1456  0.7983
  132DOPC  H16X18208   7.487   0.400   3.024 -0.8869  2.1172  0.7998
  132DOPC  H16Y18209   7.359   0.379   3.159  0.7732  2.0280  0.6495
  132DOPC  C31718210   7.395   0.199   3.047  0.2864 -0.0760  0.6826
  132DOPC  H17X18211   7.479   0.167   3.112  0.8626 -3.5695 -1.5011
  132DOPC  H17Y18212   7.297   0.156   3.077 -0.2848 -0.8807 -1.9886
  132DOPC  C31818213   7.441   0.143   2.910 -0.3386  0.1939  0.3077
  132DOPC  H18X18214   7.353   0.123   2.845 -1.3386 -0.2358  1.7319
  132DOPC  H18Y18215   7.525   0.207   2.876  0.5395  0.6296  3.0377
  132DOPC  H18Z18216   7.470   0.036   2.924 -2.2744 -0.5371 -0.8473
  133DOPC     N18217   0.201   1.482   1.589 -0.0368 -0.2083  0.0284
  133DOPC   C1218218   0.311   1.392   1.541  0.1330 -0.1883 -0.2898
  133DOPC  H12A18219   0.383   1.382   1.620 -0.9692  1.7396  1.0355
  133DOPC  H12B18220   0.361   1.447   1.463 -0.8413  1.4313  0.1817
  133DOPC   C1318221   0.104   1.509   1.483  0.2394  0.2879  0.2735
  133DOPC  H13A18222   0.148   1.529   1.386  0.5917 -0.3548  0.2966
  133DOPC  H13B18223   0.038   1.424   1.469 -0.0886  0.4987  0.5247
  133DOPC  H13C18224   0.038   1.593   1.497  0.0187 -0.0284  1.2038
  133DOPC   C1418225   0.262   1.612   1.626 -0.5038 -0.1206  0.5376
  133DOPC  H14A18226   0.307   1.657   1.539 -2.2636 -0.9176 -0.8583
  133DOPC  H14B18227   0.185   1.680   1.662 -1.1000 -0.5831  0.1606
  133DOPC  H14C18228   0.331   1.597   1.708 -2.4868  0.6041  2.4426
  133DOPC   C1518229   0.130   1.420   1.705 -0.6765 -0.9424  0.6288
  133DOPC  H15A18230   0.087   1.338   1.649 -0.3441  0.6931 -2.2448
  133DOPC  H15B18231   0.053   1.488   1.738 -1.8451 -1.8545 -0.1322
  133DOPC  H15C18232   0.207   1.387   1.773 -0.5545 -1.8131  0.0860
  133DOPC   C1118233   0.283   1.253   1.477  0.0025 -0.0594 -0.1613
  133DOPC  H11A18234   0.227   1.274   1.384 -2.2588  1.2162  1.3972
  133DOPC  H11B18235   0.377   1.200   1.452  1.1427  2.0414 -0.5404
  133DOPC     P18236   0.260   1.078   1.669 -0.3123  0.0874 -0.4151
  133DOPC   O1318237   0.401   1.036   1.632 -0.0192  0.1703 -0.2193
  133DOPC   O1418238   0.156   0.976   1.691 -0.1413  0.2167 -0.8216
  133DOPC   O1218239   0.204   1.166   1.557 -0.3937  0.2347 -0.2638
  133DOPC   O1118240   0.257   1.184   1.793  0.0813 -0.1318 -0.3215
  133DOPC    C118241   0.368   1.190   1.881 -0.6333  0.0933 -0.7730
  133DOPC    HA18242   0.362   1.282   1.943 -0.4894  0.0356 -0.6730
  133DOPC    HB18243   0.462   1.195   1.823  0.2410  0.0831  0.5936
  133DOPC    C218244   0.378   1.068   1.978 -0.7105  0.4818 -0.0860
  133DOPC    HS18245   0.369   0.970   1.926 -1.3649  0.3588  0.2471
  133DOPC   O2118246   0.271   1.080   2.074  0.2940  0.8587  0.4644
  133DOPC   C2118247   0.227   0.965   2.122 -0.1376 -0.4975  0.4471
  133DOPC   O2218248   0.249   0.857   2.072 -0.2082 -0.6886 -0.0551
  133DOPC   C2218249   0.145   0.992   2.248 -0.5056 -0.1395  0.0565
  133DOPC   H2R18250   0.044   0.947   2.236 -0.8006 -0.2630  2.4647
  133DOPC   H2S18251   0.133   1.101   2.267 -0.6431 -0.0582 -0.4857
  133DOPC    C318252   0.520   1.062   2.047 -0.4546 -0.9927 -0.4990
  133DOPC    HX18253   0.532   1.155   2.107 -1.0316 -1.7639  0.8431
  133DOPC    HY18254   0.594   1.065   1.964 -1.0310  2.8198 -1.1021
  133DOPC   O3118255   0.537   0.963   2.140 -0.1455  0.5947 -0.1784
  133DOPC   C3118256   0.553   0.833   2.097  0.2657  0.5710  0.2985
  133DOPC   O3218257   0.578   0.806   1.980  0.4666 -0.1109  0.1105
  133DOPC   C3218258   0.525   0.743   2.222  0.3819  0.7005 -0.2697
  133DOPC   H2X18259   0.591   0.771   2.306 -0.2669 -1.0529  0.8737
  133DOPC   H2Y18260   0.419   0.764   2.249  0.2389 -3.1587  2.9488
  133DOPC   C2318261   0.214   0.936   2.375 -0.3014 -0.4958  0.1792
  133DOPC   H3R18262   0.316   0.980   2.375 -0.2983 -0.2615  3.5750
  133DOPC   H3S18263   0.230   0.826   2.378  0.4239 -0.5355 -2.3429
  133DOPC   C2418264   0.142   0.978   2.501 -0.0967 -0.3447 -0.8196
  133DOPC   H4R18265   0.032   0.967   2.500 -0.0072 -1.5149 -0.1041
  133DOPC   H4S18266   0.147   1.089   2.513 -0.0776 -0.4277  0.0277
  133DOPC   C2518267   0.196   0.916   2.626 -0.0637  0.0435  0.4784
  133DOPC   H5R18268   0.134   0.952   2.711 -1.7752 -0.9824 -0.2767
  133DOPC   H5S18269   0.304   0.933   2.645  0.3104 -2.2263  0.6671
  133DOPC   C2618270   0.166   0.762   2.622  0.0579  0.3127 -0.2891
  133DOPC   H6R18271   0.208   0.703   2.538  0.9288  1.3790 -0.6195
  133DOPC   H6S18272   0.058   0.740   2.604  0.1537 -1.3506  0.8774
  133DOPC   C2718273   0.206   0.697   2.758  1.0770 -0.4747 -0.1494
  133DOPC   H7R18274   0.148   0.738   2.844  1.3247 -0.6900  0.1223
  133DOPC   H7S18275   0.313   0.725   2.770  0.7477  0.2629  1.3221
  133DOPC   C2818276   0.186   0.540   2.765  0.0272 -0.8835 -0.4524
  133DOPC   H8R18277   0.252   0.484   2.696 -0.2603 -1.4798 -0.2533
  133DOPC   H8S18278   0.081   0.528   2.731 -0.0568 -0.3683 -0.3826
  133DOPC   C2918279   0.198   0.488   2.908 -0.2903 -0.0972  0.0390
  133DOPC   H9R18280   0.303   0.475   2.938  0.3061  0.9948 -1.4284
  133DOPC  C21018281   0.102   0.438   2.992 -0.1558 -0.4006  0.0757
  133DOPC  H10R18282   0.123   0.403   3.095 -0.3018  1.4479  0.7720
  133DOPC  C21118283   8.491   0.432   2.957 -0.4059 -0.0037  0.8581
  133DOPC  H11R18284   8.444   0.352   3.018 -0.2290  0.2235  1.2993
  133DOPC  H11S18285   8.474   0.385   2.858 -2.2646  0.6075  0.8439
  133DOPC  C21218286   8.417   0.566   2.962 -0.0028 -0.2185 -0.3379
  133DOPC  H12R18287   8.448   0.639   2.884 -0.8069 -0.7183 -1.1490
  133DOPC  H12S18288   8.445   0.604   3.063 -2.4783 -0.7176  0.6183
  133DOPC  C21318289   8.266   0.551   2.955  0.5241  0.4906  0.5427
  133DOPC  H13R18290   8.247   0.508   2.854  0.8750  2.6697 -0.5069
  133DOPC  H13S18291   8.218   0.651   2.946 -1.0303 -0.1278  1.6486
  133DOPC  C21418292   8.194   0.484   3.078  0.1636 -0.5886  0.2220
  133DOPC  H14R18293   8.243   0.528   3.168  0.2134  1.3631 -0.7164
  133DOPC  H14S18294   8.205   0.374   3.066  2.8557 -0.3184 -0.4965
  133DOPC  C21518295   8.042   0.521   3.078  0.2843  0.1469 -0.5119
  133DOPC  H15R18296   7.998   0.484   2.983  0.3736 -0.3073 -0.3809
  133DOPC  H15S18297   8.008   0.625   3.094 -0.6979 -0.3032  0.4288
  133DOPC  C21618298   7.980   0.441   3.200  0.0249  0.2159  0.1835
  133DOPC  H16R18299   8.033   0.469   3.294  0.7265 -1.5541  0.3668
  133DOPC  H16S18300   8.003   0.335   3.175  1.8215  0.1198  1.9321
  133DOPC  C21718301   7.827   0.453   3.207  0.1235  1.1082 -0.7037
  133DOPC  H17R18302   7.771   0.429   3.115  2.1407  0.3595 -1.8082
  133DOPC  H17S18303   7.784   0.547   3.246 -0.6382  0.2861  0.5341
  133DOPC  C21818304   7.767   0.349   3.308 -0.8485  0.0947  0.3608
  133DOPC  H18R18305   7.807   0.247   3.290  0.9221  0.8313 -0.1046
  133DOPC  H18S18306   7.659   0.352   3.281 -0.1696  2.7117 -2.7537
  133DOPC  H18T18307   7.777   0.358   3.418 -1.4671 -1.5934  0.5916
  133DOPC   C3318308   0.558   0.591   2.202 -0.1588 -0.6604 -0.2267
  133DOPC   H3X18309   0.665   0.579   2.175 -0.4567 -1.4501 -1.1132
  133DOPC   H3Y18310   0.494   0.554   2.119  1.5262  1.2259 -2.5070
  133DOPC   C3418311   0.520   0.516   2.334 -0.1817  0.4707 -0.0392
  133DOPC   H4X18312   0.411   0.503   2.353 -0.3312  0.8477 -0.5955
  133DOPC   H4Y18313   0.556   0.562   2.429  0.2053  0.8706 -0.3745
  133DOPC   C3518314   0.590   0.382   2.344  0.6477 -1.0584  0.3091
  133DOPC   H5X18315   0.694   0.410   2.371  0.8154 -0.1296 -1.1753
  133DOPC   H5Y18316   0.582   0.345   2.240  2.9238  1.5242 -0.8864
  133DOPC   C3618317   0.520   0.284   2.437 -0.0039  0.3948  1.4082
  133DOPC   H6X18318   0.411   0.275   2.417  0.1162 -0.8703  1.2460
  133DOPC   H6Y18319   0.562   0.185   2.409  2.8685  2.1631 -1.1462
  133DOPC   C3718320   0.542   0.310   2.586 -0.0365 -0.0743 -0.5187
  133DOPC   H7X18321   0.650   0.305   2.610  0.5341  2.1714 -2.3511
  133DOPC   H7Y18322   0.519   0.414   2.617 -1.1162 -0.7512  1.0926
  133DOPC   C3818323   0.459   0.208   2.670  0.6834 -0.2881 -0.2484
  133DOPC   H8X18324   0.483   0.106   2.633  0.8990 -0.1518 -0.4913
  133DOPC   H8Y18325   0.354   0.227   2.641  0.8297  0.8522 -0.0763
  133DOPC   C3918326   0.456   0.245   2.816 -1.1360 -0.2772  0.7030
  133DOPC   H9X18327   0.419   0.346   2.840 -1.0907 -0.3423  1.0527
  133DOPC  C31018328   0.489   0.167   2.920  0.2660  0.1691 -0.1859
  133DOPC  H10X18329   0.476   0.197   3.025 -0.9455 -0.5601 -0.1022
  133DOPC  C31118330   0.518   0.019   2.921 -0.3130  0.4905 -0.3100
  133DOPC  H11X18331   0.512   8.502   2.823 -1.8823 -0.2496  0.1588
  133DOPC  H11Y18332   0.450   8.498   2.988 -0.5438  0.4996 -0.5389
  133DOPC  C31218333   0.656   8.517   2.974 -0.5100 -0.1471  0.0772
  133DOPC  H12X18334   0.733   0.025   2.906  0.5574  0.4725  1.6143
  133DOPC  H12Y18335   0.669   8.407   2.969 -0.2419 -0.0596 -2.9446
  133DOPC  C31318336   0.688   0.037   3.116  0.8132  0.1783 -0.4315
  133DOPC  H13X18337   0.795   0.033   3.147  0.0252  1.4130  2.8967
  133DOPC  H13Y18338   0.667   0.144   3.136  1.3095 -0.3055  3.6038
  133DOPC  C31418339   0.617   8.493   3.224  0.2522 -0.5133 -0.0306
  133DOPC  H14X18340   0.511   8.505   3.193 -0.6269 -1.9171  2.1355
  133DOPC  H14Y18341   0.637   8.383   3.229 -0.5401 -0.7737 -1.8947
  133DOPC  C31518342   0.629   0.015   3.363  0.3974  0.6037 -0.5892
  133DOPC  H15X18343   0.590   0.119   3.361 -2.2108 -0.2942  0.3848
  133DOPC  H15Y18344   0.737   0.028   3.386 -0.0590  1.1824  1.4441
  133DOPC  C31618345   0.543   8.461   3.461  0.5416 -0.4444 -0.3143
  133DOPC  H16X18346   0.437   8.465   3.431  0.5332 -2.4740 -0.7217
  133DOPC  H16Y18347   0.587   8.361   3.440  1.2054 -0.2796  0.2553
  133DOPC  C31718348   0.554   8.507   3.608  0.3490  0.3524  0.0049
  133DOPC  H17X18349   0.651   8.466   3.642  0.8743  0.6303 -1.1266
  133DOPC  H17Y18350   0.550   0.083   3.616  1.8366  0.3790  0.7933
  133DOPC  C31818351   0.441   8.439   3.686  0.5165  0.5928 -0.0527
  133DOPC  H18X18352   0.444   8.475   3.791 -2.1438 -2.5901  1.3116
  133DOPC  H18Y18353   0.338   8.454   3.646  0.5934  0.4292 -0.3179
  133DOPC  H18Z18354   0.457   8.329   3.691  0.3868  0.5923  4.6322
  134DOPC     N18355   2.986   8.101   1.182 -0.3510 -0.1763 -0.4275
  134DOPC   C1218356   3.098   8.002   1.222  0.9881  0.5516 -0.3545
  134DOPC  H12A18357   3.165   8.043   1.297  0.0465  0.2881  0.6677
  134DOPC  H12B18358   3.151   7.981   1.131  3.2727  0.3629  0.9350
  134DOPC   C1318359   2.889   8.038   1.085 -0.7229 -0.5886  0.2467
  134DOPC  H13A18360   2.801   8.093   1.053  1.9578  2.9691 -1.6659
  134DOPC  H13B18361   2.943   8.015   0.995  1.5891  0.1625  1.3725
  134DOPC  H13C18362   2.865   7.944   1.133  1.5051 -1.3315 -0.0005
  134DOPC   C1418363   3.047   8.208   1.113 -0.1965 -0.4316  0.2020
  134DOPC  H14A18364   3.112   8.170   1.035  0.7807 -0.6981  1.1191
  134DOPC  H14B18365   2.973   8.271   1.066  0.0440 -1.5896 -1.8932
  134DOPC  H14C18366   3.115   8.262   1.176 -0.5119  0.4148 -0.1737
  134DOPC   C1518367   2.907   8.155   1.293  0.6430  0.2361  0.2123
  134DOPC  H15A18368   2.828   8.222   1.263  2.7926  2.4253 -0.8802
  134DOPC  H15B18369   2.957   8.224   1.359  0.7977 -1.1423  1.5868
  134DOPC  H15C18370   2.861   8.075   1.349 -1.2670  1.2141  0.1237
  134DOPC   C1118371   3.054   7.860   1.286  0.0397  0.3490 -0.2691
  134DOPC  H11A18372   2.982   7.809   1.218 -2.6024  2.5237  0.7121
  134DOPC  H11B18373   3.143   7.795   1.304 -1.0053 -1.2905 -0.7893
  134DOPC     P18374   2.968   7.782   1.525  0.0456 -0.3154 -0.0112
  134DOPC   O1318375   2.994   7.650   1.469  0.7831 -0.2192  0.2897
  134DOPC   O1418376   2.829   7.797   1.573  0.4616  0.0310 -0.2160
  134DOPC   O1218377   2.987   7.888   1.408  0.3678  0.0282  0.2689
  134DOPC   O1118378   3.081   7.819   1.630 -0.1310  0.1286 -0.0972
  134DOPC    C118379   3.143   7.951   1.621 -0.5870  0.7047 -0.3088
  134DOPC    HA18380   3.076   8.026   1.573 -2.3655  0.2878  1.4083
  134DOPC    HB18381   3.238   7.941   1.564 -0.8365  0.8852 -0.7652
  134DOPC    C218382   3.174   8.014   1.760  0.2096 -0.1653 -0.0499
  134DOPC    HS18383   3.235   8.103   1.735 -2.2066  0.9772 -2.3739
  134DOPC   O2118384   3.230   7.915   1.845  0.0109  0.3199 -1.0728
  134DOPC   C2118385   3.357   7.881   1.809 -0.1712 -0.7026 -0.2607
  134DOPC   O2218386   3.421   7.944   1.724 -0.5419 -0.5815  0.9190
  134DOPC   C2218387   3.410   7.758   1.885  0.0397  0.7316  0.2781
  134DOPC   H2R18388   3.484   7.713   1.815  1.4575 -0.7624  2.6151
  134DOPC   H2S18389   3.327   7.686   1.903  1.7146 -1.1864  0.7433
  134DOPC    C318390   3.050   8.074   1.840  0.1650  0.3044  0.3462
  134DOPC    HX18391   3.003   8.153   1.777  2.0437  1.6902  0.5735
  134DOPC    HY18392   3.101   8.114   1.930 -0.1752 -0.5853  0.9428
  134DOPC   O3118393   2.957   7.970   1.879 -0.2757 -0.2253 -0.0149
  134DOPC   C3118394   2.829   7.983   1.843  0.4497 -0.1177  0.4399
  134DOPC   O3218395   2.786   8.071   1.769  0.9066  0.7556 -0.1570
  134DOPC   C3218396   2.736   7.889   1.908  0.0721 -0.2788  0.4216
  134DOPC   H2X18397   2.647   7.854   1.852  0.2814 -2.5732  1.4043
  134DOPC   H2Y18398   2.784   7.791   1.932  0.0446 -0.1977  0.8195
  134DOPC   C2318399   3.492   7.774   2.020 -0.2691  0.2359  0.1389
  134DOPC   H3R18400   3.575   7.847   2.011 -1.9535  2.1748 -0.5791
  134DOPC   H3S18401   3.549   7.679   2.028  0.6653  0.8319  0.6529
  134DOPC   C2418402   3.401   7.771   2.142 -0.2450  0.5656  0.4088
  134DOPC   H4R18403   3.471   7.745   2.225 -0.1274  0.2978  0.2245
  134DOPC   H4S18404   3.331   7.685   2.130  0.7491 -0.1398 -0.4529
  134DOPC   C2518405   3.310   7.891   2.163 -0.0462  0.2566  0.0786
  134DOPC   H5R18406   3.261   7.897   2.064 -1.6967  0.8568  0.8942
  134DOPC   H5S18407   3.377   7.979   2.174 -0.4228  0.9864 -2.7420
  134DOPC   C2618408   3.206   7.863   2.273  0.1523  0.3769  0.1631
  134DOPC   H6R18409   3.248   7.903   2.367  1.7907  0.9260 -0.7711
  134DOPC   H6S18410   3.199   7.754   2.297  3.0744  0.4404  1.6867
  134DOPC   C2718411   3.073   7.927   2.243  0.4586 -0.0987 -0.4969
  134DOPC   H7R18412   3.020   7.881   2.157 -0.0399  1.5649 -1.1146
  134DOPC   H7S18413   3.092   8.034   2.220  0.8526  0.0355  0.4167
  134DOPC   C2818414   2.980   7.932   2.362 -0.3209  0.4572  0.1106
  134DOPC   H8R18415   2.892   7.991   2.327 -0.2097  0.5327 -0.0426
  134DOPC   H8S18416   3.039   7.988   2.437  0.2250 -1.9565  1.6065
  134DOPC   C2918417   2.929   7.797   2.410 -0.5111  0.2283  1.0512
  134DOPC   H9R18418   2.914   7.724   2.328  1.0004 -1.1240  1.9092
  134DOPC  C21018419   2.933   7.751   2.541 -0.2285 -0.1165  0.3455
  134DOPC  H10R18420   2.896   7.649   2.562  1.0422 -1.0310 -1.4872
  134DOPC  C21118421   2.983   7.835   2.661  0.3013 -0.2615 -0.1355
  134DOPC  H11R18422   2.891   7.881   2.701  0.0865 -1.2149  0.4952
  134DOPC  H11S18423   3.059   7.909   2.627 -1.3889  1.7834  0.3580
  134DOPC  C21218424   3.041   7.747   2.774 -0.1517  0.5613 -0.3141
  134DOPC  H12R18425   3.139   7.699   2.755 -0.0177  0.5759  0.3310
  134DOPC  H12S18426   2.975   7.658   2.782  1.3901 -0.6542 -0.5738
  134DOPC  C21318427   3.060   7.833   2.903  0.4527  0.2607  0.4268
  134DOPC  H13R18428   2.968   7.891   2.927  0.5050 -1.5071  6.8170
  134DOPC  H13S18429   3.139   7.909   2.886 -1.8264  2.2422 -2.2288
  134DOPC  C21418430   3.088   7.750   3.022  0.3454 -0.8077  1.1003
  134DOPC  H14R18431   3.131   7.802   3.109  0.6702  0.5972  0.1221
  134DOPC  H14S18432   3.170   7.678   3.003  0.9746 -0.4355  2.2955
  134DOPC  C21518433   2.974   7.654   3.073 -0.1486 -0.1066 -0.1952
  134DOPC  H15R18434   2.934   7.608   2.980  2.6129  2.6487 -2.9713
  134DOPC  H15S18435   2.893   7.718   3.115  0.0151  1.0596 -1.5848
  134DOPC  C21618436   3.010   7.535   3.171  0.0626 -0.1652  0.2512
  134DOPC  H16R18437   3.101   7.493   3.123 -0.9191 -0.1788 -1.7322
  134DOPC  H16S18438   2.928   7.462   3.185  0.2074 -0.2960  0.4121
  134DOPC  C21718439   3.043   7.591   3.315  0.1005  0.2977  0.2146
  134DOPC  H17R18440   2.952   7.642   3.354  1.5405  0.9927  2.8817
  134DOPC  H17S18441   3.131   7.658   3.310 -1.3395  2.4573  1.9549
  134DOPC  C21818442   3.080   7.477   3.414  0.5705 -0.1991  0.2791
  134DOPC  H18R18443   3.168   7.426   3.370  0.3276  1.3164 -2.1199
  134DOPC  H18S18444   3.009   7.393   3.433 -0.4613  0.1856 -1.6598
  134DOPC  H18T18445   3.122   7.518   3.509 -0.6879 -0.5900  1.0389
  134DOPC   C3318446   2.695   7.940   2.047  0.2817 -0.0895  0.4876
  134DOPC   H3X18447   2.617   8.014   2.021  0.6283 -0.8451 -3.2549
  134DOPC   H3Y18448   2.774   7.986   2.110  0.5935 -0.5153  0.4188
  134DOPC   C3418449   2.636   7.833   2.141 -0.3436 -0.0476  0.0022
  134DOPC   H4X18450   2.717   7.778   2.194  0.1118  1.4986  0.9877
  134DOPC   H4Y18451   2.565   7.764   2.092 -1.1865  0.9668 -0.2502
  134DOPC   C3518452   2.547   7.898   2.251 -0.0837  0.4253  0.3125
  134DOPC   H5X18453   2.460   7.952   2.207 -1.3586 -1.3375  0.5385
  134DOPC   H5Y18454   2.614   7.972   2.299 -0.4675  0.0551  1.4609
  134DOPC   C3618455   2.495   7.802   2.354  0.4254 -0.5203  0.3284
  134DOPC   H6X18456   2.423   7.736   2.302 -3.5006  3.4486  0.2133
  134DOPC   H6Y18457   2.582   7.743   2.390  0.9497 -0.7855 -1.2790
  134DOPC   C3718458   2.440   7.877   2.473 -0.0373  0.3526  0.4168
  134DOPC   H7X18459   2.501   7.968   2.486 -0.7742  0.6798  1.8414
  134DOPC   H7Y18460   2.334   7.906   2.453 -0.1281  0.4517  1.0247
  134DOPC   C3818461   2.430   7.791   2.602  0.0165  0.0757  0.2777
  134DOPC   H8X18462   2.531   7.757   2.636  1.1908  3.2562  0.3540
  134DOPC   H8Y18463   2.371   7.700   2.577  2.1690 -1.7212  1.2973
  134DOPC   C3918464   2.363   7.860   2.713  0.7307 -0.7937 -0.6017
  134DOPC   H9X18465   2.253   7.870   2.704  0.3796 -0.6721  2.6663
  134DOPC  C31018466   2.420   7.927   2.812  0.0476 -0.2993 -0.9120
  134DOPC  H10X18467   2.338   7.963   2.876 -1.2917 -1.0902 -2.1340
  134DOPC  C31118468   2.566   7.961   2.844 -0.1021  0.1381 -0.1470
  134DOPC  H11X18469   2.570   8.061   2.891  1.4336  0.1030 -0.1457
  134DOPC  H11Y18470   2.630   7.970   2.753 -0.4916 -0.3267 -0.4774
  134DOPC  C31218471   2.647   7.851   2.925 -0.0566  0.6650 -0.5189
  134DOPC  H12X18472   2.756   7.870   2.924 -0.1473  1.4360  1.2889
  134DOPC  H12Y18473   2.633   7.748   2.884 -0.3871  1.1034 -1.5477
  134DOPC  C31318474   2.615   7.849   3.075  0.1764  0.1046  0.3020
  134DOPC  H13X18475   2.511   7.815   3.094 -0.2671  0.6142 -1.1000
  134DOPC  H13Y18476   2.687   7.777   3.121  0.0160 -1.7079 -2.0643
  134DOPC  C31418477   2.637   7.993   3.125  0.2135 -0.4685 -0.0958
  134DOPC  H14X18478   2.735   8.026   3.084  0.2196  0.0418  0.3115
  134DOPC  H14Y18479   2.565   8.068   3.085 -0.3295 -0.3403  1.1020
  134DOPC  C31518480   2.645   7.999   3.274 -0.3448  0.3126 -0.3675
  134DOPC  H15X18481   2.690   7.901   3.299 -0.0231  0.1630 -1.5115
  134DOPC  H15Y18482   2.553   7.993   3.336  0.2510 -1.4922  0.4084
  134DOPC  C31618483   2.740   8.100   3.336 -0.3321 -0.1387 -0.3436
  134DOPC  H16X18484   2.763   8.074   3.441  2.9361  3.7760  0.1297
  134DOPC  H16Y18485   2.832   8.086   3.275  0.7914  1.7538  0.8045
  134DOPC  C31718486   2.697   8.247   3.320  1.1661  0.4413 -0.2178
  134DOPC  H17X18487   2.693   8.276   3.213  0.9556  2.0984  0.2129
  134DOPC  H17Y18488   2.598   8.261   3.369  0.7571 -3.0910  0.2560
  134DOPC  C31818489   2.805   8.342   3.377  1.0262  0.0184  0.2143
  134DOPC  H18X18490   2.778   8.448   3.362 -4.2172 -1.0480  0.1507
  134DOPC  H18Y18491   2.795   8.331   3.487 -0.7086 -1.1450 -0.0184
  134DOPC  H18Z18492   2.904   8.303   3.342  0.8528 -0.5586  0.3490
  135DOPC     N18493   6.801   1.909   1.700 -0.0521 -0.0323 -0.6645
  135DOPC   C1218494   6.928   1.891   1.789  0.8081  0.7304  0.1646
  135DOPC  H12A18495   6.928   1.969   1.863  0.8053  0.7471  0.1472
  135DOPC  H12B18496   7.010   1.911   1.721  1.5717 -0.4144  0.7052
  135DOPC   C1318497   6.682   1.928   1.796  0.2348  0.1718  0.2750
  135DOPC  H13A18498   6.588   1.920   1.744  0.4074 -1.2465  0.1615
  135DOPC  H13B18499   6.676   1.850   1.871  1.9960 -1.0961 -0.8195
  135DOPC  H13C18500   6.678   2.032   1.825  0.0447  1.1794 -3.0373
  135DOPC   C1418501   6.782   1.793   1.616  0.4465  0.4659  0.3377
  135DOPC  H14A18502   6.842   1.788   1.527 -1.5519 -1.6977 -1.0032
  135DOPC  H14B18503   6.814   1.705   1.669 -1.1108 -1.5038 -1.7850
  135DOPC  H14C18504   6.677   1.772   1.598  0.3240  0.1098  1.3772
  135DOPC   C1518505   6.812   2.029   1.615 -0.5147 -0.5917  0.1090
  135DOPC  H15A18506   6.821   2.124   1.665  0.5660  0.5161 -2.0399
  135DOPC  H15B18507   6.723   2.030   1.554 -1.8330  1.9804  1.8635
  135DOPC  H15C18508   6.891   2.014   1.543 -0.4954  1.7799 -0.4514
  135DOPC   C1118509   6.958   1.751   1.855 -0.4813 -0.6467 -0.0351
  135DOPC  H11A18510   7.041   1.757   1.928 -0.3133  2.0472 -0.3689
  135DOPC  H11B18511   6.863   1.709   1.896 -1.7064  0.1626 -1.8911
  135DOPC     P18512   6.999   1.508   1.763  0.1978 -0.7468  0.5006
  135DOPC   O1318513   7.100   1.443   1.677 -0.1560  0.2244 -0.0032
  135DOPC   O1418514   6.855   1.476   1.733  0.2344  0.0774 -0.0872
  135DOPC   O1218515   7.005   1.666   1.754 -0.2289 -0.1099  0.2714
  135DOPC   O1118516   7.031   1.481   1.913  0.1762  0.3881  0.3414
  135DOPC    C118517   7.166   1.478   1.957  0.9653 -0.3177 -0.2384
  135DOPC    HA18518   7.188   1.554   2.035 -2.6917 -1.0725  1.7151
  135DOPC    HB18519   7.238   1.496   1.874 -1.0600  1.6637 -1.6562
  135DOPC    C218520   7.210   1.331   2.002  0.4374  0.1124  0.0412
  135DOPC    HS18521   7.190   1.265   1.915 -0.4376  0.3868  0.0256
  135DOPC   O2118522   7.131   1.307   2.123  0.2675 -0.3136  0.4155
  135DOPC   C2118523   7.142   1.185   2.164  0.0301 -0.0185  0.7462
  135DOPC   O2218524   7.204   1.093   2.110  0.5496 -0.1575  0.2988
  135DOPC   C2218525   7.069   1.164   2.292 -0.3169 -0.6073  0.5146
  135DOPC   H2R18526   6.961   1.166   2.266 -0.6181 -0.8374  1.6881
  135DOPC   H2S18527   7.099   1.250   2.356 -0.4108 -0.0711 -0.1499
  135DOPC    C318528   7.363   1.340   2.029 -0.3100 -0.0422  0.3423
  135DOPC    HX18529   7.397   1.397   1.941  1.2318  1.3092  1.7417
  135DOPC    HY18530   7.402   1.236   2.023  0.7958  0.2158  2.1221
  135DOPC   O3118531   7.408   1.406   2.152 -0.1148  0.5380  0.2739
  135DOPC   C3118532   7.512   1.480   2.149 -0.4597 -0.0289  0.7814
  135DOPC   O3218533   7.579   1.512   2.050 -0.0915 -0.8383  0.3069
  135DOPC   C3218534   7.531   1.534   2.287  0.1192 -0.2444  0.1148
  135DOPC   H2X18535   7.571   1.636   2.273  1.2502 -0.3191  2.3401
  135DOPC   H2Y18536   7.435   1.550   2.341  1.3370  1.4121  1.9580
  135DOPC   C2318537   7.102   1.031   2.364 -0.3188 -0.7707 -0.6708
  135DOPC   H3R18538   7.212   1.016   2.376 -0.1286 -0.8539 -2.2661
  135DOPC   H3S18539   7.058   0.943   2.311 -1.3942 -1.9551  1.9867
  135DOPC   C2418540   7.046   1.042   2.506 -0.9248 -0.4251 -0.6001
  135DOPC   H4R18541   7.060   1.140   2.556  2.0276 -1.4958  0.9115
  135DOPC   H4S18542   7.095   0.966   2.571 -0.6332  0.4718  0.2705
  135DOPC   C2518543   6.898   1.015   2.517 -0.8081 -0.1927 -0.2855
  135DOPC   H5R18544   6.895   0.910   2.481 -2.2317 -0.1325 -0.3772
  135DOPC   H5S18545   6.832   1.076   2.452  0.2407  2.1067  0.6817
  135DOPC   C2618546   6.837   1.034   2.659  0.2919  0.7936  0.1155
  135DOPC   H6R18547   6.856   1.135   2.701  0.9586  1.5616 -1.9482
  135DOPC   H6S18548   6.884   0.963   2.731  2.6648  2.5499  0.4076
  135DOPC   C2718549   6.687   0.990   2.671  0.3756  0.5979  0.5077
  135DOPC   H7R18550   6.690   0.885   2.635 -0.4384  0.4556  0.8489
  135DOPC   H7S18551   6.627   1.044   2.595  0.3568 -1.9648 -1.4135
  135DOPC   C2818552   6.631   1.002   2.813  0.0401 -0.6033 -0.2052
  135DOPC   H8R18553   6.634   1.108   2.847  0.3350 -0.7561  0.2549
  135DOPC   H8S18554   6.693   0.949   2.888 -2.2003 -1.4666  1.1189
  135DOPC   C2918555   6.489   0.951   2.813  0.0061 -0.0484  0.1275
  135DOPC   H9R18556   6.414   1.027   2.785 -0.3751 -0.0302  1.1824
  135DOPC  C21018557   6.440   0.830   2.849  0.3527 -0.6273  0.3294
  135DOPC  H10R18558   6.331   0.821   2.835  0.2405 -0.5945  1.1804
  135DOPC  C21118559   6.513   0.709   2.904 -0.7175 -0.4415  0.6133
  135DOPC  H11R18560   6.607   0.755   2.943 -1.4981  2.8714 -1.1298
  135DOPC  H11S18561   6.536   0.635   2.824  0.2586  0.5411 -0.0458
  135DOPC  C21218562   6.442   0.641   3.027  0.0844 -0.3554 -0.3750
  135DOPC  H12R18563   6.518   0.566   3.059 -1.2412 -2.5234 -1.9969
  135DOPC  H12S18564   6.350   0.586   2.999  0.2400 -2.0744  2.1309
  135DOPC  C21318565   6.409   0.743   3.145 -0.9005  0.1919 -0.9791
  135DOPC  H13R18566   6.330   0.819   3.126 -1.6101  0.0059  1.0212
  135DOPC  H13S18567   6.504   0.800   3.152 -1.5325  1.2884 -1.1665
  135DOPC  C21418568   6.356   0.671   3.271  0.1561 -0.2394 -0.4432
  135DOPC  H14R18569   6.430   0.589   3.290  0.4928 -0.6730 -3.2525
  135DOPC  H14S18570   6.268   0.608   3.248  1.8619 -2.6730 -0.7294
  135DOPC  C21518571   6.347   0.762   3.397  0.7747  0.1836  0.0976
  135DOPC  H15R18572   6.244   0.802   3.389  0.2384 -1.2703 -0.5654
  135DOPC  H15S18573   6.420   0.846   3.394 -1.2873  2.1095  1.0664
  135DOPC  C21618574   6.385   0.688   3.528 -0.6317  0.3487 -0.2599
  135DOPC  H16R18575   6.486   0.644   3.514 -0.0387  1.4079  0.5157
  135DOPC  H16S18576   6.312   0.611   3.558 -0.7572  1.1196  1.5715
  135DOPC  C21718577   6.402   0.773   3.654 -0.4163  0.5148 -0.5144
  135DOPC  H17R18578   6.476   0.850   3.627  0.4277  0.1457  0.6433
  135DOPC  H17S18579   6.454   0.704   3.723  1.2337 -0.3603 -2.5452
  135DOPC  C21818580   6.276   0.833   3.716  0.4625  0.2378 -0.2693
  135DOPC  H18R18581   6.235   0.918   3.657 -0.5415  0.9942  1.4601
  135DOPC  H18S18582   6.295   0.873   3.818 -0.5857 -1.4600  0.6349
  135DOPC  H18T18583   6.200   0.753   3.726  1.0371 -0.4932 -1.5314
  135DOPC   C3318584   7.629   1.448   2.377 -0.4042 -0.1633  0.7364
  135DOPC   H3X18585   7.731   1.444   2.333 -0.5241  1.3253  0.2586
  135DOPC   H3Y18586   7.592   1.345   2.394 -2.4331  0.4133  0.1575
  135DOPC   C3418587   7.647   1.520   2.508  0.3637 -0.1055 -0.0967
  135DOPC   H4X18588   7.554   1.532   2.568  0.3815 -0.4801  0.0072
  135DOPC   H4Y18589   7.681   1.623   2.482  2.6220  0.0095  2.7515
  135DOPC   C3518590   7.748   1.446   2.597  0.0960 -0.2596 -0.6702
  135DOPC   H5X18591   7.838   1.421   2.537  0.7412  1.1097 -0.3079
  135DOPC   H5Y18592   7.694   1.351   2.619 -2.8089  0.7180 -2.8441
  135DOPC   C3618593   7.779   1.534   2.722  0.5991  0.8731 -0.2100
  135DOPC   H6X18594   7.811   1.637   2.697  0.0746  1.3238  0.8773
  135DOPC   H6Y18595   7.684   1.548   2.778 -1.8127  0.9890 -3.9652
  135DOPC   C3718596   7.899   1.468   2.797  0.1198 -0.2901 -0.2590
  135DOPC   H7X18597   7.878   1.362   2.821  2.6344 -0.3067  2.5107
  135DOPC   H7Y18598   7.998   1.453   2.749  0.3738 -0.3465  0.2707
  135DOPC   C3818599   7.924   1.541   2.932 -0.3676  0.2584  0.9489
  135DOPC   H8X18600   7.833   1.530   2.995  0.8005  2.9490  3.3360
  135DOPC   H8Y18601   7.944   1.649   2.915 -0.7847  0.3554  1.0617
  135DOPC   C3918602   8.035   1.468   3.009 -0.1216  0.2711  0.6633
  135DOPC   H9X18603   8.012   1.361   3.026  0.7226 -0.1478 -0.6910
  135DOPC  C31018604   8.156   1.501   3.054  0.3767 -0.2756 -0.3165
  135DOPC  H10X18605   8.207   1.444   3.134  2.1371  0.4172 -0.9123
  135DOPC  C31118606   8.216   1.638   3.034  0.6619  0.5023  0.0994
  135DOPC  H11X18607   8.217   1.692   3.131  0.1835 -0.7029  0.7867
  135DOPC  H11Y18608   8.149   1.694   2.964  0.5258 -0.4575 -0.5492
  135DOPC  C31218609   8.361   1.638   2.985  0.2894  0.0268 -0.2435
  135DOPC  H12X18610   8.373   1.608   2.879 -0.5688 -0.7073 -0.1467
  135DOPC  H12Y18611   8.404   1.556   3.046 -1.0474  0.2575  1.0779
  135DOPC  C31318612   8.428   1.775   3.011 -0.3346  0.3614  0.5808
  135DOPC  H13X18613   8.394   1.860   2.948 -1.2043  0.3111  0.9575
  135DOPC  H13Y18614   8.399   1.806   3.114 -4.0368 -0.0986 -0.1787
  135DOPC  C31418615   0.045   1.769   3.000  0.0414  0.2021 -0.5884
  135DOPC  H14X18616   0.076   1.865   3.047  0.4407 -0.9015  1.5195
  135DOPC  H14Y18617   0.100   1.702   3.069  1.0113  2.6970  1.2320
  135DOPC  C31518618   0.101   1.771   2.857 -0.0506  0.3151  0.7823
  135DOPC  H15X18619   0.034   1.826   2.787 -0.6220 -0.2383  0.8858
  135DOPC  H15Y18620   0.116   1.666   2.823 -0.3291  0.1493  1.1581
  135DOPC  C31618621   0.235   1.837   2.852 -0.0653 -0.2059  0.3115
  135DOPC  H16X18622   0.208   1.942   2.877  0.0055  0.3841 -1.9229
  135DOPC  H16Y18623   0.296   1.790   2.932 -0.4183 -3.2899 -1.1165
  135DOPC  C31718624   0.300   1.818   2.721  0.3705 -0.0312  0.5354
  135DOPC  H17X18625   0.224   1.830   2.640  1.7409 -1.5230 -1.0826
  135DOPC  H17Y18626   0.366   1.905   2.702 -1.1063  0.9991 -0.0833
  135DOPC  C31818627   0.370   1.680   2.698  0.1794 -0.0398  0.4657
  135DOPC  H18X18628   0.438   1.660   2.783 -0.8107  1.0028  1.5414
  135DOPC  H18Y18629   0.299   1.601   2.665  0.6808  0.4327 -1.9359
  135DOPC  H18Z18630   0.436   1.679   2.609 -0.0195  0.8498  0.3033
  136DOPC     N18631   4.613   6.177   1.974 -0.2951  1.2713  0.0471
  136DOPC   C1218632   4.586   6.330   1.985  0.5990  0.3982  0.4359
  136DOPC  H12A18633   4.522   6.359   1.903  1.6833  0.6882 -0.3354
  136DOPC  H12B18634   4.678   6.387   1.990  1.0460 -0.2075 -0.5943
  136DOPC   C1318635   4.701   6.140   1.854  0.3442  0.6331 -0.1167
  136DOPC  H13A18636   4.696   6.033   1.839 -0.8494  0.5163  0.9667
  136DOPC  H13B18637   4.664   6.177   1.760  5.0743  1.2767 -1.9880
  136DOPC  H13C18638   4.803   6.174   1.869  0.9705 -0.9638 -0.5211
  136DOPC   C1418639   4.482   6.113   1.968 -0.0488  0.6660  0.4515
  136DOPC  H14A18640   4.420   6.148   2.049  0.8544 -1.8529  2.3807
  136DOPC  H14B18641   4.443   6.141   1.871 -1.5922  1.2526  1.2107
  136DOPC  H14C18642   4.487   6.006   1.985  0.5628  1.0660  3.3322
  136DOPC   C1518643   4.684   6.129   2.097  0.0019  0.6239 -0.1608
  136DOPC  H15A18644   4.620   6.162   2.177 -0.9009 -1.0067 -0.1787
  136DOPC  H15B18645   4.786   6.162   2.113  0.2117 -0.4528  0.7772
  136DOPC  H15C18646   4.687   6.023   2.116 -0.3494  0.5062 -0.7428
  136DOPC   C1118647   4.516   6.381   2.118 -0.2924 -0.8546 -0.2598
  136DOPC  H11A18648   4.580   6.358   2.205  0.1537 -1.0741 -0.6400
  136DOPC  H11B18649   4.514   6.492   2.118  1.9575 -0.7610 -0.2253
  136DOPC     P18650   4.264   6.385   2.086  0.2981 -0.1386 -0.3025
  136DOPC   O1318651   4.138   6.313   2.117  0.1856 -0.2466  0.5643
  136DOPC   O1418652   4.288   6.419   1.942  0.2433  0.2804 -0.1945
  136DOPC   O1218653   4.388   6.319   2.142 -0.5323  0.4358  0.4800
  136DOPC   O1118654   4.256   6.521   2.158  0.3062 -0.2805 -0.7190
  136DOPC    C118655   4.270   6.527   2.301  0.4137  0.5341  0.3152
  136DOPC    HA18656   4.372   6.502   2.338  0.2804 -0.6031 -0.0548
  136DOPC    HB18657   4.188   6.469   2.348 -0.6554 -0.3382 -2.3920
  136DOPC    C218658   4.244   6.673   2.347  0.1012 -0.4391 -0.8554
  136DOPC    HS18659   4.295   6.735   2.270 -1.9339  0.5976 -1.4647
  136DOPC   O2118660   4.287   6.690   2.489  0.2019  0.1985  0.2263
  136DOPC   C2118661   4.354   6.805   2.506  0.8380 -0.5994 -0.2161
  136DOPC   O2218662   4.398   6.876   2.416 -0.2005  0.2169 -0.4184
  136DOPC   C2218663   4.364   6.833   2.654 -0.4289  0.2403  0.2863
  136DOPC   H2R18664   4.266   6.853   2.703  0.1649 -1.1801  2.1777
  136DOPC   H2S18665   4.436   6.916   2.674  2.1676 -1.8109 -0.0208
  136DOPC    C318666   4.091   6.711   2.337  0.4740  0.7791 -0.5126
  136DOPC    HX18667   4.041   6.633   2.399 -0.9979  0.5972 -1.8456
  136DOPC    HY18668   4.055   6.691   2.233  1.0437  0.7663 -0.7083
  136DOPC   O3118669   4.054   6.829   2.394 -0.0729 -0.0014 -0.2147
  136DOPC   C3118670   4.089   6.931   2.316  0.1055 -0.4736 -0.2474
  136DOPC   O3218671   4.130   6.927   2.201  0.0531 -0.2798  0.5317
  136DOPC   C3218672   4.049   7.066   2.396  0.2891 -0.5150 -0.7117
  136DOPC   H2X18673   4.116   7.144   2.353  1.3985  0.1952  2.0863
  136DOPC   H2Y18674   3.942   7.088   2.375 -0.2117  0.7424  2.6622
  136DOPC   C2318675   4.430   6.717   2.728  0.1259 -1.0097  0.1962
  136DOPC   H3R18676   4.527   6.699   2.677 -0.3936  0.5156 -1.4320
  136DOPC   H3S18677   4.360   6.631   2.723  0.4616 -1.2878  0.2503
  136DOPC   C2418678   4.464   6.740   2.873 -0.5602  0.4184 -0.3793
  136DOPC   H4R18679   4.502   6.842   2.895  1.9748 -0.8509  1.8046
  136DOPC   H4S18680   4.545   6.670   2.902 -0.5354  0.3051 -0.7185
  136DOPC   C2518681   4.347   6.708   2.970  0.5320  0.2286  0.2621
  136DOPC   H5R18682   4.327   6.603   2.942  1.6855  0.2189 -0.6099
  136DOPC   H5S18683   4.258   6.764   2.935  1.3205  0.3999 -1.5558
  136DOPC   C2618684   4.361   6.739   3.121  0.2725 -0.2431  0.7666
  136DOPC   H6R18685   4.358   6.848   3.141  0.9403  0.2307 -1.4535
  136DOPC   H6S18686   4.462   6.701   3.148  0.7501 -2.5084 -3.3163
  136DOPC   C2718687   4.253   6.658   3.198  0.9802 -0.2280  0.6899
  136DOPC   H7R18688   4.153   6.677   3.154  1.1823  1.5737  0.8967
  136DOPC   H7S18689   4.253   6.703   3.299 -0.9741  0.0169  0.6064
  136DOPC   C2818690   4.257   6.506   3.201 -1.2142  0.0834  0.9432
  136DOPC   H8R18691   4.362   6.472   3.214 -1.0089  0.3764  0.1001
  136DOPC   H8S18692   4.236   6.459   3.103 -0.8813 -0.1409  0.9741
  136DOPC   C2918693   4.168   6.451   3.311  0.0410 -0.4607 -0.3860
  136DOPC   H9R18694   4.201   6.483   3.411  0.9859 -2.5571  0.0280
  136DOPC  C21018695   4.064   6.374   3.301  0.5412  0.7689  0.7864
  136DOPC  H10R18696   4.018   6.342   3.396  0.8541 -0.7092  0.4594
  136DOPC  C21118697   3.986   6.332   3.179 -0.5675 -0.3928 -0.0629
  136DOPC  H11R18698   4.056   6.338   3.093 -1.8150  2.2524 -0.9897
  136DOPC  H11S18699   3.915   6.409   3.143  0.0347 -0.1183 -0.6905
  136DOPC  C21218700   3.904   6.200   3.177  0.2717  0.0078  0.5450
  136DOPC  H12R18701   3.814   6.228   3.236  1.9165  2.4402  2.0987
  136DOPC  H12S18702   3.948   6.114   3.233 -0.8555 -3.7475 -3.7309
  136DOPC  C21318703   3.880   6.145   3.034  0.5722 -0.7679  0.7888
  136DOPC  H13R18704   3.981   6.122   2.992  0.7521  0.8833  0.2522
  136DOPC  H13S18705   3.834   6.232   2.983  2.3660  0.0759  0.5412
  136DOPC  C21418706   3.784   6.025   3.031  0.3016  0.1981 -0.0867
  136DOPC  H14R18707   3.705   6.045   3.106  1.0172  1.6775  0.3050
  136DOPC  H14S18708   3.836   5.931   3.061  0.4598 -0.3795 -2.0013
  136DOPC  C21518709   3.718   6.013   2.897  0.1283  0.0202 -0.7360
  136DOPC  H15R18710   3.791   6.009   2.813  0.7160 -1.9810 -0.1784
  136DOPC  H15S18711   3.664   6.108   2.874 -1.0577 -0.1660  1.0391
  136DOPC  C21618712   3.622   5.893   2.899 -0.3417 -0.4155  0.5630
  136DOPC  H16R18713   3.535   5.916   2.965  1.2118  0.3462  2.4590
  136DOPC  H16S18714   3.666   5.802   2.945 -0.5920  0.0770  1.8441
  136DOPC  C21718715   3.563   5.851   2.760 -0.3186  0.1302  0.2533
  136DOPC  H17R18716   3.536   5.744   2.752  2.7899 -0.9595  2.3183
  136DOPC  H17S18717   3.643   5.863   2.683 -2.1540 -0.0216 -1.7832
  136DOPC  C21818718   3.444   5.940   2.713 -0.1013  0.1448 -0.3387
  136DOPC  H18R18719   3.353   5.909   2.768  1.2930 -1.7386  1.0143
  136DOPC  H18S18720   3.435   5.940   2.602  0.3588  0.0693 -0.3791
  136DOPC  H18T18721   3.458   6.046   2.741 -2.8472  0.1902  1.2476
  136DOPC   C3318722   4.074   7.071   2.548 -0.2114  0.8783 -0.2725
  136DOPC   H3X18723   4.174   7.027   2.566 -0.3858  0.6651  0.1827
  136DOPC   H3Y18724   3.994   7.009   2.594 -0.4363  1.5000  0.1935
  136DOPC   C3418725   4.067   7.216   2.595 -0.8704 -0.2129  0.3584
  136DOPC   H4X18726   3.971   7.262   2.565  0.1460  2.3851  0.8140
  136DOPC   H4Y18727   4.152   7.276   2.556  0.6376 -1.2092  1.9455
  136DOPC   C3518728   4.074   7.232   2.749  0.3095 -0.6425 -0.5349
  136DOPC   H5X18729   4.156   7.162   2.778  0.9383  0.0464 -0.6291
  136DOPC   H5Y18730   3.985   7.197   2.806  1.0027  0.9478  1.6584
  136DOPC   C3618731   4.087   7.378   2.791 -0.4463 -0.2258  0.8572
  136DOPC   H6X18732   4.179   7.427   2.754 -0.2016 -1.4360 -0.1935
  136DOPC   H6Y18733   4.000   7.425   2.740  0.8484  0.1924 -1.0532
  136DOPC   C3718734   4.070   7.403   2.942  0.3375 -0.9419  0.0239
  136DOPC   H7X18735   3.978   7.347   2.969 -1.5862  1.9697 -0.0363
  136DOPC   H7Y18736   4.160   7.363   2.994  1.2553 -1.5551 -1.9651
  136DOPC   C3818737   4.068   7.553   2.969  0.1701 -0.3208 -0.3326
  136DOPC   H8X18738   3.999   7.599   2.895 -0.2738  1.2669  0.9880
  136DOPC   H8Y18739   4.171   7.590   2.948  0.5643 -0.7074  0.8389
  136DOPC   C3918740   4.026   7.604   3.108 -0.3794  0.7121  0.6121
  136DOPC   H9X18741   4.027   7.527   3.187 -0.8954  0.7024  0.6158
  136DOPC  C31018742   3.967   7.724   3.122  0.3821  0.0180 -0.7636
  136DOPC  H10X18743   3.945   7.761   3.223  0.0806  2.2080 -1.5912
  136DOPC  C31118744   3.924   7.832   3.024  0.0716 -0.2072 -0.4614
  136DOPC  H11X18745   3.813   7.841   3.027 -0.0503 -1.4916 -0.4005
  136DOPC  H11Y18746   3.948   7.805   2.919 -1.4877  0.4884 -1.0289
  136DOPC  C31218747   3.993   7.977   3.058  0.2563  0.2986  0.0033
  136DOPC  H12X18748   4.101   7.974   3.033  0.0772 -0.8213 -0.7030
  136DOPC  H12Y18749   3.979   8.001   3.166 -1.1633  1.7171 -0.4618
  136DOPC  C31318750   3.937   8.087   2.973  0.3451 -0.8456 -0.7560
  136DOPC  H13X18751   3.826   8.088   2.980  0.4034 -0.6888  0.3854
  136DOPC  H13Y18752   3.971   8.184   3.015 -0.4787  0.5176 -3.0910
  136DOPC  C31418753   3.989   8.069   2.832  0.5693 -0.1933  0.2733
  136DOPC  H14X18754   4.078   8.003   2.830 -1.3265 -3.0270 -3.1855
  136DOPC  H14Y18755   3.907   8.005   2.791  0.2146 -0.4368  1.3128
  136DOPC  C31518756   4.006   8.201   2.751  0.3095 -0.4216 -0.1857
  136DOPC  H15X18757   4.044   8.173   2.650  0.5944  1.2579 -0.5745
  136DOPC  H15Y18758   4.082   8.258   2.808 -2.0146  2.7722  0.0339
  136DOPC  C31618759   3.877   8.279   2.742  0.1163 -0.0454  0.0088
  136DOPC  H16X18760   3.797   8.234   2.680 -1.6631  0.5593  1.7741
  136DOPC  H16Y18761   3.842   8.289   2.847 -1.1548 -2.7233 -0.0552
  136DOPC  C31718762   3.884   8.414   2.678  0.1543 -0.4994 -0.0768
  136DOPC  H17X18763   3.792   8.469   2.706  2.2761  1.5238  3.7638
  136DOPC  H17Y18764   3.959   8.469   2.738  0.0289  0.1300 -0.4928
  136DOPC  C31818765   3.905   8.401   2.526 -0.0374  0.3632  0.8234
  136DOPC  H18X18766   3.985   8.336   2.486  0.8006  1.1917  1.1317
  136DOPC  H18Y18767   3.808   8.363   2.487  0.3753 -0.0396  0.1811
  136DOPC  H18Z18768   3.928   8.505   2.495 -0.3847  0.5781  1.2668
  137DOPC     N18769   6.999   6.638   1.202  0.4506 -0.0659  0.3322
  137DOPC   C1218770   6.912   6.735   1.289  0.5571  0.1887 -0.5828
  137DOPC  H12A18771   6.813   6.752   1.250 -0.1930 -1.9693  0.2346
  137DOPC  H12B18772   6.971   6.826   1.295  0.4768  0.2039  0.0501
  137DOPC   C1318773   7.127   6.612   1.263 -0.7118 -0.4204 -0.9568
  137DOPC  H13A18774   7.116   6.577   1.365 -0.9319 -0.8696 -1.1342
  137DOPC  H13B18775   7.182   6.537   1.208 -2.1642 -0.9561 -1.7396
  137DOPC  H13C18776   7.182   6.704   1.277 -0.4672 -0.0916 -3.5763
  137DOPC   C1418777   7.030   6.711   1.074 -0.2933 -0.5962  0.5467
  137DOPC  H14A18778   7.114   6.669   1.020  0.9548  2.6822 -0.2994
  137DOPC  H14B18779   6.945   6.702   1.008 -0.8276 -0.2974  1.1893
  137DOPC  H14C18780   7.053   6.815   1.091 -2.6238 -0.0013  0.4105
  137DOPC   C1518781   6.921   6.509   1.174 -0.1319 -0.1589  0.6050
  137DOPC  H15A18782   6.841   6.531   1.105 -0.2948  1.7735  1.3430
  137DOPC  H15B18783   6.881   6.468   1.266 -0.1402  0.3474  0.8326
  137DOPC  H15C18784   6.991   6.441   1.127 -1.9816 -1.3290 -0.5565
  137DOPC   C1118785   6.878   6.705   1.438 -0.1239 -0.4197 -0.2217
  137DOPC  H11A18786   6.826   6.796   1.475 -0.8305 -0.1915 -1.6872
  137DOPC  H11B18787   6.801   6.625   1.439 -1.3887  0.7081  2.4006
  137DOPC     P18788   7.076   6.784   1.591 -0.3474  0.2461 -0.0546
  137DOPC   O1318789   7.125   6.878   1.483  0.2282 -0.3768  0.2385
  137DOPC   O1418790   7.180   6.723   1.677  0.1616  0.4187 -0.4513
  137DOPC   O1218791   6.988   6.667   1.522 -0.0679  0.1186 -0.0516
  137DOPC   O1118792   6.978   6.871   1.679 -0.1330 -0.5901 -0.1786
  137DOPC    C118793   6.889   6.806   1.773  0.4211 -0.0102 -0.0229
  137DOPC    HA18794   6.857   6.704   1.744 -0.8442 -0.1756  1.7601
  137DOPC    HB18795   6.793   6.862   1.776  0.1507 -0.1791 -3.2026
  137DOPC    C218796   6.940   6.789   1.921 -0.2367 -0.2438  0.1556
  137DOPC    HS18797   7.040   6.741   1.909 -1.3583 -2.2085 -2.4787
  137DOPC   O2118798   6.847   6.706   1.987  0.4778 -0.5730  0.2916
  137DOPC   C2118799   6.876   6.579   1.977  0.0096  0.0910  0.4162
  137DOPC   O2218800   6.964   6.525   1.909  0.3250 -0.7119 -0.3967
  137DOPC   C2218801   6.786   6.494   2.068  0.1279 -0.1285 -0.0330
  137DOPC   H2R18802   6.739   6.412   2.010 -1.3761  0.3236  0.4899
  137DOPC   H2S18803   6.710   6.563   2.111 -0.5150 -1.5293  1.1592
  137DOPC    C318804   6.951   6.914   1.994 -0.0179 -0.8300  0.0911
  137DOPC    HX18805   6.855   6.970   1.990  0.1218 -0.3948  1.7742
  137DOPC    HY18806   7.022   6.986   1.948 -0.6976  0.9850  1.7183
  137DOPC   O3118807   6.989   6.885   2.130  0.6822  0.4330  0.1037
  137DOPC   C3118808   7.116   6.870   2.163  0.6534 -0.3864 -0.2408
  137DOPC   O3218809   7.214   6.878   2.092  1.0349  0.2387 -0.3000
  137DOPC   C3218810   7.125   6.853   2.313  0.1082 -0.2851 -1.1526
  137DOPC   H2X18811   7.044   6.906   2.367  0.1446 -0.1523 -1.2280
  137DOPC   H2Y18812   7.123   6.743   2.329 -0.1304 -0.4815 -2.4152
  137DOPC   C2318813   6.862   6.433   2.182 -0.5494 -0.4797  0.2487
  137DOPC   H3R18814   6.959   6.400   2.140  0.2121  0.9765  0.7727
  137DOPC   H3S18815   6.792   6.353   2.214 -1.0074  0.9970  3.2719
  137DOPC   C2418816   6.875   6.531   2.305  0.0505 -0.4594  0.0591
  137DOPC   H4R18817   6.770   6.542   2.340  0.4930  2.4892  0.7121
  137DOPC   H4S18818   6.919   6.627   2.270 -0.3162 -0.1935  0.3188
  137DOPC   C2518819   6.965   6.473   2.415  0.1969 -0.2146 -0.2679
  137DOPC   H5R18820   7.069   6.479   2.376 -0.1529  1.6914 -1.0180
  137DOPC   H5S18821   6.944   6.366   2.433  0.3820 -0.6485 -2.3772
  137DOPC   C2618822   6.946   6.557   2.546  0.1712 -0.1014 -0.4945
  137DOPC   H6R18823   6.844   6.554   2.588  0.1988  4.3289  0.4132
  137DOPC   H6S18824   6.949   6.666   2.520 -2.3392  0.0689 -0.2779
  137DOPC   C2718825   7.063   6.517   2.643  0.8282 -1.2083  0.4269
  137DOPC   H7R18826   7.150   6.497   2.576 -0.1955  1.8985 -2.0436
  137DOPC   H7S18827   7.044   6.423   2.700  3.0348 -0.0987  3.3008
  137DOPC   C2818828   7.101   6.621   2.749  0.4506  0.2559 -0.2053
  137DOPC   H8R18829   7.127   6.718   2.701  2.3728  0.9415  2.0541
  137DOPC   H8S18830   7.186   6.583   2.810 -0.2018  1.2513  1.3847
  137DOPC   C2918831   6.988   6.657   2.849  0.1849 -0.1402 -0.1485
  137DOPC   H9R18832   6.910   6.722   2.807  1.2093  1.0779 -0.2233
  137DOPC  C21018833   6.975   6.607   2.974  0.0757 -0.4887  0.5696
  137DOPC  H10R18834   6.885   6.629   3.033  0.2513  1.5835  0.1287
  137DOPC  C21118835   7.068   6.510   3.046  0.5046  0.4385 -0.1743
  137DOPC  H11R18836   7.167   6.499   2.996 -0.7160 -2.0883 -2.2566
  137DOPC  H11S18837   7.020   6.410   3.043 -1.0092  1.1281  0.0882
  137DOPC  C21218838   7.090   6.541   3.198  0.1448  0.4779  0.6006
  137DOPC  H12R18839   6.987   6.535   3.240 -0.4627  1.6806 -0.6283
  137DOPC  H12S18840   7.125   6.642   3.230  0.1744  1.5632 -2.5399
  137DOPC  C21318841   7.174   6.421   3.269  0.3355  0.4078  0.0345
  137DOPC  H13R18842   7.117   6.326   3.261 -0.2771  0.9632 -3.6669
  137DOPC  H13S18843   7.190   6.449   3.376  0.7190  2.8487 -0.6112
  137DOPC  C21418844   7.316   6.401   3.213  0.5546 -0.2904  1.0390
  137DOPC  H14R18845   7.303   6.395   3.103 -0.5434 -0.1382  1.1519
  137DOPC  H14S18846   7.356   6.298   3.229 -0.1355 -0.6085  0.7677
  137DOPC  C21518847   7.418   6.495   3.256  0.4275 -0.5488 -0.0415
  137DOPC  H15R18848   7.388   6.598   3.228  1.6500 -0.3518 -0.6986
  137DOPC  H15S18849   7.516   6.483   3.205  1.6083  1.3276  1.5965
  137DOPC  C21618850   7.448   6.504   3.404  0.3324 -0.0348 -0.0625
  137DOPC  H16R18851   7.477   6.401   3.436 -1.9580 -1.0634 -1.0847
  137DOPC  H16S18852   7.355   6.537   3.454 -0.3681 -0.2350 -1.2177
  137DOPC  C21718853   7.551   6.607   3.439  0.0202 -0.6606 -0.1316
  137DOPC  H17R18854   7.547   6.641   3.544 -0.3759 -0.7095 -0.1299
  137DOPC  H17S18855   7.523   6.698   3.381  1.8555  0.9161  1.3234
  137DOPC  C21818856   7.701   6.579   3.403  0.3940 -0.3467  0.0794
  137DOPC  H18R18857   7.763   6.671   3.396  0.6557 -0.5056  0.3112
  137DOPC  H18S18858   7.707   6.547   3.297 -1.2902 -0.4145 -0.0190
  137DOPC  H18T18859   7.761   6.522   3.477  1.6416  0.3964 -0.3278
  137DOPC   C3318860   7.267   6.898   2.367  0.0713  1.0525  0.4228
  137DOPC   H3X18861   7.266   7.008   2.352 -2.3895  1.0141 -0.2718
  137DOPC   H3Y18862   7.342   6.861   2.294  0.7609  0.1566  1.5622
  137DOPC   C3418863   7.294   6.848   2.507 -0.1605 -0.6761  0.5108
  137DOPC   H4X18864   7.298   6.737   2.508  1.9103 -0.6857 -1.1678
  137DOPC   H4Y18865   7.212   6.875   2.576 -0.5086 -0.5775  0.0655
  137DOPC   C3518866   7.424   6.915   2.560 -0.0334  0.4186 -0.0924
  137DOPC   H5X18867   7.426   7.022   2.530  1.4458  0.0105 -1.6200
  137DOPC   H5Y18868   7.512   6.875   2.506 -0.6906  0.8215 -1.4992
  137DOPC   C3618869   7.430   6.917   2.721  0.2496  0.2152 -0.6754
  137DOPC   H6X18870   7.513   6.981   2.759 -1.1992  1.9513 -0.3393
  137DOPC   H6Y18871   7.341   6.975   2.752 -0.9234 -1.6090 -0.5184
  137DOPC   C3718872   7.434   6.776   2.793  0.6016  0.0927 -0.0487
  137DOPC   H7X18873   7.363   6.705   2.746  1.9627 -2.0003  0.8971
  137DOPC   H7Y18874   7.536   6.740   2.768  0.0441 -1.4164 -0.2672
  137DOPC   C3818875   7.419   6.772   2.946  0.2996  0.5395  0.2457
  137DOPC   H8X18876   7.512   6.819   2.983 -0.2583 -0.4179  3.0668
  137DOPC   H8Y18877   7.416   6.672   2.995 -1.9755  1.2660  1.7664
  137DOPC   C3918878   7.295   6.849   2.987  0.5716  0.0467  0.1986
  137DOPC   H9X18879   7.202   6.791   2.998  0.4290  0.6498  2.8927
  137DOPC  C31018880   7.274   6.980   3.017 -0.1550  0.0695 -0.0978
  137DOPC  H10X18881   7.173   7.005   3.052  0.0737  0.3545  0.3665
  137DOPC  C31118882   7.370   7.092   3.019  0.2101 -0.8724 -0.5315
  137DOPC  H11X18883   7.318   7.181   2.979 -2.4984 -1.5952  1.0916
  137DOPC  H11Y18884   7.454   7.080   2.948  1.1313  2.7300 -0.2518
  137DOPC  C31218885   7.419   7.136   3.163 -0.1592 -0.0279 -0.2680
  137DOPC  H12X18886   7.340   7.195   3.215 -0.4722 -0.1928 -0.5545
  137DOPC  H12Y18887   7.502   7.210   3.154  1.3258 -1.3392  1.7934
  137DOPC  C31318888   7.466   7.014   3.244 -0.1271  0.1774 -0.3209
  137DOPC  H13X18889   7.381   6.945   3.258 -0.7987  1.1782  0.7202
  137DOPC  H13Y18890   7.542   6.964   3.181  1.9557  0.8045  1.5501
  137DOPC  C31418891   7.536   7.059   3.372  0.7534 -0.1208  0.2747
  137DOPC  H14X18892   7.627   7.123   3.367  0.9899 -0.4753 -0.0264
  137DOPC  H14Y18893   7.457   7.116   3.425  0.0893 -0.6470 -0.1178
  137DOPC  C31518894   7.589   6.943   3.454  0.1001  0.2776  0.0811
  137DOPC  H15X18895   7.660   6.884   3.392  1.7164 -1.2307  3.1728
  137DOPC  H15Y18896   7.506   6.874   3.482 -0.3597  0.2803 -1.1712
  137DOPC  C31618897   7.662   6.985   3.575  0.3801 -0.0532 -0.1925
  137DOPC  H16X18898   7.744   7.051   3.539  0.7642 -0.3703  0.1003
  137DOPC  H16Y18899   7.592   7.044   3.637 -0.1584  0.0810 -0.9119
  137DOPC  C31718900   7.710   6.866   3.650 -0.6861  0.7942  0.7768
  137DOPC  H17X18901   7.616   6.812   3.674  0.2823 -1.3517  0.0173
  137DOPC  H17Y18902   7.769   6.799   3.584  1.5562  1.3185  2.1440
  137DOPC  C31818903   7.785   6.894   3.783 -0.6479 -0.2676  0.0594
  137DOPC  H18X18904   7.874   6.959   3.766 -0.6118 -0.0920  0.9049
  137DOPC  H18Y18905   7.708   6.943   3.846 -0.2213 -0.6095  0.8668
  137DOPC  H18Z18906   7.820   6.809   3.845  2.0436  1.4940  1.1764
  138DOPC     N18907   1.185   5.970   1.718 -0.6807 -0.0438 -0.0567
  138DOPC   C1218908   1.278   5.848   1.726 -0.0771  0.2275 -0.0752
  138DOPC  H12A18909   1.308   5.827   1.625  1.5285  0.3578  0.3468
  138DOPC  H12B18910   1.237   5.756   1.767 -1.1899  0.8945  0.3740
  138DOPC   C1318911   1.055   5.917   1.644  1.1279 -0.4800 -0.0388
  138DOPC  H13A18912   1.064   5.874   1.546 -1.5681 -0.3411 -0.4360
  138DOPC  H13B18913   1.004   5.849   1.711  0.2187  2.1683  2.1557
  138DOPC  H13C18914   0.989   6.000   1.624 -0.3723 -1.2241  1.5118
  138DOPC   C1418915   1.245   6.084   1.642  0.1695 -0.0148  0.3828
  138DOPC  H14A18916   1.251   6.053   1.539  3.1641  0.0231  0.4410
  138DOPC  H14B18917   1.175   6.166   1.638 -0.3606 -0.4953 -3.0278
  138DOPC  H14C18918   1.348   6.104   1.669 -0.0078 -1.1134  2.0284
  138DOPC   C1518919   1.139   6.016   1.853 -0.1100 -0.7585  0.8673
  138DOPC  H15A18920   1.221   6.060   1.908 -1.2223  1.7248  0.6862
  138DOPC  H15B18921   1.086   5.946   1.915  0.0040 -0.3432  1.4405
  138DOPC  H15C18922   1.072   6.098   1.831  3.8202  2.9946  1.4923
  138DOPC   C1118923   1.411   5.870   1.801  0.3445  0.2115  0.5848
  138DOPC  H11A18924   1.468   5.951   1.751  1.2096  0.7447  2.3514
  138DOPC  H11B18925   1.373   5.902   1.900  1.1270  0.1877  0.9034
  138DOPC     P18926   1.553   5.675   1.688  0.0284  0.2103 -0.0814
  138DOPC   O1318927   1.498   5.725   1.559  0.0259 -0.8235 -0.4959
  138DOPC   O1418928   1.544   5.527   1.711 -0.5531 -0.1357  0.2279
  138DOPC   O1218929   1.482   5.748   1.804  0.0160 -0.6646  0.2893
  138DOPC   O1118930   1.706   5.691   1.702  0.7758  0.8461  0.0299
  138DOPC    C118931   1.779   5.796   1.641 -0.0898 -0.4807  1.0362
  138DOPC    HA18932   1.707   5.864   1.590 -0.1918 -1.3397 -0.0046
  138DOPC    HB18933   1.850   5.763   1.563 -1.4607 -1.2843  0.0906
  138DOPC    C218934   1.858   5.888   1.742 -0.2452 -0.2846  0.3892
  138DOPC    HS18935   1.944   5.829   1.781  1.0428  0.0079 -1.8072
  138DOPC   O2118936   1.769   5.920   1.855 -0.5754 -0.1043  0.3289
  138DOPC   C2118937   1.775   5.831   1.955  0.1991 -0.3830 -0.4451
  138DOPC   O2218938   1.854   5.740   1.967  0.5384 -0.0984  0.8795
  138DOPC   C2218939   1.666   5.864   2.051  0.2311 -0.3069 -0.3335
  138DOPC   H2R18940   1.573   5.815   2.015  0.9272 -0.3942 -2.1099
  138DOPC   H2S18941   1.644   5.972   2.042  2.4702  0.0740 -2.1588
  138DOPC    C318942   1.916   6.024   1.684 -0.4660 -0.3333 -0.0332
  138DOPC    HX18943   1.846   6.101   1.647  0.3197  1.2636  1.6525
  138DOPC    HY18944   1.981   5.990   1.601  0.1423 -1.1225  0.7451
  138DOPC   O3118945   2.003   6.077   1.782  0.2338 -0.3098 -0.9232
  138DOPC   C3118946   1.966   6.187   1.852  0.6259 -0.6074 -0.5639
  138DOPC   O3218947   1.857   6.236   1.847 -0.1361 -0.0480 -0.3597
  138DOPC   C3218948   2.079   6.224   1.945 -0.8745  0.5347 -0.3803
  138DOPC   H2X18949   2.166   6.196   1.882 -0.3370 -2.3947  1.5015
  138DOPC   H2Y18950   2.090   6.335   1.947 -2.8343  0.7840 -1.1953
  138DOPC   C2318951   1.699   5.823   2.195 -0.1151 -1.1188  0.8179
  138DOPC   H3R18952   1.796   5.856   2.237  1.1820 -1.1642 -1.8943
  138DOPC   H3S18953   1.710   5.712   2.194  1.1075 -1.0896 -2.6152
  138DOPC   C2418954   1.592   5.877   2.284 -0.4880  1.1130 -0.0665
  138DOPC   H4R18955   1.614   5.829   2.381  1.9427  1.8816 -0.1540
  138DOPC   H4S18956   1.488   5.855   2.254 -0.3345  0.1099  0.1082
  138DOPC   C2518957   1.601   6.033   2.312  0.1863 -0.8368  0.1464
  138DOPC   H5R18958   1.544   6.078   2.228  3.3534  3.2106 -0.1606
  138DOPC   H5S18959   1.706   6.067   2.304  0.1004 -0.6178 -0.0786
  138DOPC   C2618960   1.541   6.089   2.440  0.1500 -0.3744 -0.3196
  138DOPC   H6R18961   1.592   6.027   2.517 -0.2177 -2.3158 -1.5699
  138DOPC   H6S18962   1.431   6.073   2.440  0.1499 -0.5871  1.5178
  138DOPC   C2718963   1.572   6.236   2.464  0.0922 -0.6691 -0.0925
  138DOPC   H7R18964   1.680   6.258   2.470 -0.1267  0.2206  1.1043
  138DOPC   H7S18965   1.523   6.261   2.561  1.3735  0.2131  0.3492
  138DOPC   C2818966   1.513   6.329   2.354 -0.5281  0.2316  0.1269
  138DOPC   H8R18967   1.571   6.321   2.260 -0.7967  0.8700 -0.0996
  138DOPC   H8S18968   1.527   6.437   2.376 -3.2031  0.4182  1.2992
  138DOPC   C2918969   1.368   6.311   2.328 -0.7331 -0.6258 -0.0595
  138DOPC   H9R18970   1.359   6.250   2.237  0.1237 -0.5430 -0.2106
  138DOPC  C21018971   1.268   6.342   2.410 -0.4341  0.4508  0.0541
  138DOPC  H10R18972   1.163   6.325   2.381 -1.2082  1.7108  1.8485
  138DOPC  C21118973   1.290   6.409   2.546 -0.5561 -0.6707  0.5055
  138DOPC  H11R18974   1.396   6.432   2.570 -0.3177  0.5461 -1.4735
  138DOPC  H11S18975   1.257   6.341   2.628 -2.6931 -0.5962 -0.2177
  138DOPC  C21218976   1.214   6.548   2.577 -0.4156 -0.0563  0.1445
  138DOPC  H12R18977   1.105   6.525   2.566 -0.1676 -1.6872  0.7224
  138DOPC  H12S18978   1.249   6.640   2.526  3.2651 -0.7402  1.1788
  138DOPC  C21318979   1.231   6.587   2.722  0.6736  0.1497  0.1557
  138DOPC  H13R18980   1.339   6.612   2.735  0.5074  1.1962 -0.3145
  138DOPC  H13S18981   1.209   6.493   2.777  2.8345  0.0193  0.9168
  138DOPC  C21418982   1.149   6.702   2.766  0.3757  0.2119  1.2252
  138DOPC  H14R18983   1.049   6.658   2.785  1.5374 -4.0148 -1.1135
  138DOPC  H14S18984   1.145   6.773   2.681  0.7201 -1.1431  0.0535
  138DOPC  C21518985   1.205   6.777   2.886 -0.2708 -0.5214  0.2367
  138DOPC  H15R18986   1.153   6.874   2.900 -0.2977 -0.7242  1.7056
  138DOPC  H15S18987   1.315   6.793   2.881 -0.3024  0.1765  1.4748
  138DOPC  C21618988   1.197   6.690   3.015 -0.2324 -0.3769 -0.2168
  138DOPC  H16R18989   1.278   6.615   3.027  0.7937  0.6923 -0.2412
  138DOPC  H16S18990   1.100   6.636   3.011 -1.1743  0.9702  2.3324
  138DOPC  C21718991   1.202   6.772   3.143 -0.0822  0.3750 -0.7002
  138DOPC  H17R18992   1.099   6.812   3.156 -1.1034 -1.6739 -2.0301
  138DOPC  H17S18993   1.268   6.861   3.149 -1.4402  1.6798 -3.2906
  138DOPC  C21818994   1.224   6.675   3.254 -0.7913  0.2961  0.0778
  138DOPC  H18R18995   1.332   6.650   3.266 -1.6296 -3.8850  0.4793
  138DOPC  H18S18996   1.167   6.582   3.231 -0.7246  0.2329  0.1658
  138DOPC  H18T18997   1.185   6.725   3.345  0.7776  1.5365  0.1110
  138DOPC   C3318998   2.087   6.150   2.079 -0.0221 -0.4751  0.6132
  138DOPC   H3X18999   2.182   6.168   2.132  0.0629  0.1117  0.2657
  138DOPC   H3Y19000   2.085   6.043   2.047 -0.0868  0.3152 -2.3317
  138DOPC   C3419001   1.977   6.202   2.170  0.0970 -0.0384  0.4483
  138DOPC   H4X19002   1.880   6.168   2.127 -0.1321  0.8297  0.2678
  138DOPC   H4Y19003   1.977   6.313   2.163 -0.8323  0.0608  1.6401
  138DOPC   C3519004   1.992   6.147   2.316  0.6327 -0.4261 -0.0267
  138DOPC   H5X19005   2.000   6.036   2.312  0.2172 -0.6246  2.6789
  138DOPC   H5Y19006   1.896   6.172   2.365  0.5174 -0.4219 -0.2514
  138DOPC   C3619007   2.099   6.224   2.390 -0.3363  0.0047 -0.1326
  138DOPC   H6X19008   2.194   6.171   2.364  0.4694  0.4695  1.6869
  138DOPC   H6Y19009   2.088   6.331   2.360 -0.7578  0.1136  0.4058
  138DOPC   C3719010   2.075   6.215   2.547  0.0404  0.1042  0.8486
  138DOPC   H7X19011   2.171   6.257   2.584  1.1639 -0.0337 -1.7199
  138DOPC   H7Y19012   1.995   6.279   2.591 -0.7249  0.0900 -0.4898
  138DOPC   C3819013   2.068   6.073   2.602  0.2271  0.2909  0.3685
  138DOPC   H8X19014   2.149   5.998   2.586 -2.3153 -2.3951 -0.7541
  138DOPC   H8Y19015   1.985   6.027   2.545  2.2293 -2.3496 -0.6652
  138DOPC   C3919016   2.041   6.074   2.747  0.0133 -0.1485 -0.1317
  138DOPC   H9X19017   2.118   6.101   2.821 -0.7780 -0.9929  1.0267
  138DOPC  C31019018   1.925   6.051   2.807  0.7563  0.7475 -0.7456
  138DOPC  H10X19019   1.913   6.069   2.914  0.9177 -0.8801 -0.4315
  138DOPC  C31119020   1.801   5.994   2.732 -0.1792 -0.9606 -0.4906
  138DOPC  H11X19021   1.818   5.933   2.640 -0.4293  0.5764 -1.5909
  138DOPC  H11Y19022   1.743   6.083   2.702 -0.6842 -1.9313 -2.5904
  138DOPC  C31219023   1.731   5.899   2.834 -0.5557  0.4618 -0.1681
  138DOPC  H12X19024   1.638   5.852   2.797  1.2468 -3.9212  0.3506
  138DOPC  H12Y19025   1.700   5.957   2.925 -0.2810  0.7185 -0.2355
  138DOPC  C31319026   1.809   5.771   2.881  0.2616 -0.1703  0.4354
  138DOPC  H13X19027   1.815   5.703   2.794  1.6375 -0.1348  0.4738
  138DOPC  H13Y19028   1.908   5.793   2.927 -1.5365 -0.3270  4.8897
  138DOPC  C31419029   1.743   5.683   2.994  0.1489  0.1922  0.4699
  138DOPC  H14X19030   1.648   5.638   2.960  0.5859 -2.5682  2.5353
  138DOPC  H14Y19031   1.816   5.605   3.025  0.0030 -0.0911  0.1000
  138DOPC  C31519032   1.701   5.768   3.125  0.0579 -0.6070  0.0751
  138DOPC  H15X19033   1.616   5.833   3.097  0.3745  0.5814  1.7444
  138DOPC  H15Y19034   1.782   5.841   3.146 -2.1699  1.8660  0.5544
  138DOPC  C31619035   1.670   5.672   3.244  0.2196 -0.0083  0.3468
  138DOPC  H16X19036   1.585   5.607   3.215 -0.3620  0.3252  1.2561
  138DOPC  H16Y19037   1.747   5.599   3.274 -0.4615 -0.4745  1.0090
  138DOPC  C31719038   1.619   5.739   3.372  0.3509  1.0932 -0.3729
  138DOPC  H17X19039   1.528   5.799   3.352  0.0291  0.7227 -0.0488
  138DOPC  H17Y19040   1.587   5.648   3.428  1.2569  1.0274  0.0668
  138DOPC  C31819041   1.714   5.828   3.449 -0.2959 -0.0643 -0.3899
  138DOPC  H18X19042   1.819   5.791   3.451 -0.2076 -0.1456  4.0582
  138DOPC  H18Y19043   1.710   5.925   3.395  0.9784 -0.1529 -0.6841
  138DOPC  H18Z19044   1.668   5.851   3.548 -1.6806  1.9758 -1.4461
  139DOPC     N19045   2.894   1.377   1.097 -0.2169 -0.4017 -0.2836
  139DOPC   C1219046   2.896   1.449   1.231  0.3845  0.3690  0.5751
  139DOPC  H12A19047   2.802   1.499   1.244 -1.0131 -2.0383  0.3793
  139DOPC  H12B19048   2.979   1.516   1.212 -2.2593  3.2791 -1.6709
  139DOPC   C1319049   2.796   1.263   1.096 -0.2067  0.3765  0.3049
  139DOPC  H13A19050   2.706   1.289   1.150 -1.2362  1.2223 -1.7379
  139DOPC  H13B19051   2.773   1.235   0.995  1.4583  1.0953 -0.3038
  139DOPC  H13C19052   2.838   1.175   1.144 -1.6754  0.1407  1.2282
  139DOPC   C1419053   3.030   1.324   1.047  0.0828  0.3218 -0.0663
  139DOPC  H14A19054   3.020   1.279   0.950 -0.6702  2.0244 -0.8095
  139DOPC  H14B19055   3.099   1.405   1.034  0.3095  0.3936  1.3595
  139DOPC  H14C19056   3.069   1.256   1.122 -0.0938 -0.3332 -0.5579
  139DOPC   C1519057   2.843   1.473   0.996  0.3453 -0.1888  0.2503
  139DOPC  H15A19058   2.913   1.554   0.980  0.1090  0.1568  0.9199
  139DOPC  H15B19059   2.752   1.523   1.028 -0.6044  0.1961 -2.7504
  139DOPC  H15C19060   2.825   1.415   0.907 -0.2735  0.9137 -0.3796
  139DOPC   C1119061   2.923   1.372   1.361  0.1277 -0.5979  0.6596
  139DOPC  H11A19062   2.917   1.437   1.452 -0.1277  1.0690 -0.4974
  139DOPC  H11B19063   2.842   1.296   1.365  0.4070 -0.9398 -0.0456
  139DOPC     P19064   3.167   1.350   1.432  0.1128 -0.1816  0.0231
  139DOPC   O1319065   3.193   1.488   1.386 -0.7435 -0.1033 -0.1644
  139DOPC   O1419066   3.267   1.245   1.415 -0.1856 -0.6759 -0.2205
  139DOPC   O1219067   3.039   1.295   1.360 -0.4396  0.5295  0.3473
  139DOPC   O1119068   3.132   1.360   1.591  0.6560  0.0306 -0.0046
  139DOPC    C119069   3.139   1.237   1.669  0.2450 -0.2252 -0.1341
  139DOPC    HA19070   3.161   1.269   1.773  0.4113  1.2300 -0.5849
  139DOPC    HB19071   3.218   1.167   1.635 -0.7336 -1.2332 -0.4008
  139DOPC    C219072   3.003   1.139   1.674  1.0128 -0.1098 -0.0765
  139DOPC    HS19073   2.980   1.131   1.565 -2.3542  2.6652  0.2550
  139DOPC   O2119074   2.893   1.223   1.731  0.1266  0.3924  0.2140
  139DOPC   C2119075   2.772   1.175   1.717  0.4875  0.7254 -0.0493
  139DOPC   O2219076   2.745   1.065   1.671 -0.2325  0.0217  0.2953
  139DOPC   C2219077   2.657   1.271   1.748 -0.5251  0.3977 -0.1478
  139DOPC   H2R19078   2.651   1.324   1.650  1.3350  0.6703 -0.1527
  139DOPC   H2S19079   2.696   1.338   1.828  0.7805  1.0199 -1.2568
  139DOPC    C319080   3.022   0.994   1.742  0.5592 -0.1277 -1.0029
  139DOPC    HX19081   3.094   0.943   1.674 -1.7333 -3.0258 -1.4363
  139DOPC    HY19082   2.932   0.930   1.740  2.0091 -2.2953 -0.1191
  139DOPC   O3119083   3.080   1.013   1.878  0.1423  0.4940  0.5706
  139DOPC   C3119084   3.189   0.945   1.912  0.4056  0.4144  0.3397
  139DOPC   O3219085   3.259   0.875   1.840 -0.1403  0.6356  0.2118
  139DOPC   C3219086   3.201   0.974   2.057  0.1540 -0.1042  0.0524
  139DOPC   H2X19087   3.309   0.995   2.077  0.5784 -1.9535 -0.0685
  139DOPC   H2Y19088   3.143   1.063   2.087 -0.9733 -0.5199 -0.8244
  139DOPC   C2319089   2.538   1.188   1.788 -0.9447  0.1933  0.2118
  139DOPC   H3R19090   2.508   1.114   1.711 -1.3229 -2.3867  2.6416
  139DOPC   H3S19091   2.458   1.265   1.802  0.0917  1.2258  0.6239
  139DOPC   C2419092   2.535   1.122   1.929 -0.0899  0.5339 -0.0633
  139DOPC   H4R19093   2.610   1.040   1.933 -0.5413  0.0878 -0.5555
  139DOPC   H4S19094   2.439   1.070   1.950 -0.4831  1.3787  0.2757
  139DOPC   C2519095   2.556   1.220   2.041 -0.7251  0.4996 -0.1920
  139DOPC   H5R19096   2.485   1.305   2.045 -0.8387  0.3805  0.4398
  139DOPC   H5S19097   2.661   1.255   2.025 -0.4029 -1.0139 -1.5500
  139DOPC   C2619098   2.547   1.155   2.179  0.7013 -0.0961  0.0049
  139DOPC   H6R19099   2.594   1.055   2.185  1.5864  0.2086 -1.4210
  139DOPC   H6S19100   2.438   1.137   2.195  0.4318  2.3126  1.3573
  139DOPC   C2719101   2.596   1.249   2.295  0.4321  0.6938  0.5718
  139DOPC   H7R19102   2.532   1.339   2.291 -1.8246 -0.8287 -3.2065
  139DOPC   H7S19103   2.699   1.284   2.270  1.1474 -0.9831  1.0380
  139DOPC   C2819104   2.590   1.177   2.437 -0.3211  0.6241 -0.1198
  139DOPC   H8R19105   2.647   1.244   2.505 -0.5773  2.6753 -1.7992
  139DOPC   H8S19106   2.628   1.073   2.439  0.1485  0.8062  1.0465
  139DOPC   C2919107   2.448   1.170   2.487  0.0454 -0.8629  0.0140
  139DOPC   H9R19108   2.389   1.085   2.450  0.5985 -1.6209  0.8167
  139DOPC  C21019109   2.391   1.273   2.550  0.3733 -0.4630  0.4272
  139DOPC  H10R19110   2.291   1.260   2.593  0.9076  0.1552  1.9046
  139DOPC  C21119111   2.460   1.404   2.589 -0.7297 -0.1371 -0.6219
  139DOPC  H11R19112   2.396   1.494   2.578 -1.8321 -0.5588  1.7676
  139DOPC  H11S19113   2.547   1.424   2.522  1.2981 -1.8724  1.3267
  139DOPC  C21219114   2.513   1.381   2.739  0.5754  0.3201  1.1015
  139DOPC  H12R19115   2.494   1.281   2.783 -0.2595  0.0283  0.1379
  139DOPC  H12S19116   2.448   1.446   2.801 -0.8397  0.6441 -0.6301
  139DOPC  C21319117   2.666   1.411   2.744 -0.0518 -0.1013 -0.6437
  139DOPC  H13R19118   2.689   1.511   2.701  0.1379  0.9280  1.6645
  139DOPC  H13S19119   2.721   1.337   2.683  0.5659 -0.4191  0.2782
  139DOPC  C21419120   2.726   1.408   2.884 -0.1159  0.0265 -0.9141
  139DOPC  H14R19121   2.712   1.307   2.929  1.4178  0.8729  1.7504
  139DOPC  H14S19122   2.681   1.486   2.950  0.8436  0.0725 -0.2784
  139DOPC  C21519123   2.873   1.429   2.883 -0.9677 -0.3407 -0.2591
  139DOPC  H15R19124   2.907   1.527   2.844  1.6096 -0.7840  0.7023
  139DOPC  H15S19125   2.924   1.344   2.833  1.1689  1.3041 -1.0347
  139DOPC  C21619126   2.930   1.423   3.024 -0.3622  0.2667  0.2793
  139DOPC  H16R19127   2.894   1.331   3.076 -0.3490 -0.5210 -1.0381
  139DOPC  H16S19128   2.890   1.507   3.084 -0.2810  0.2554  0.3489
  139DOPC  C21719129   3.087   1.432   3.024  0.2565  0.6397  0.4052
  139DOPC  H17R19130   3.139   1.524   2.990  0.9466 -0.4853 -1.7470
  139DOPC  H17S19131   3.118   1.343   2.966  0.0343  0.1572  1.0205
  139DOPC  C21819132   3.147   1.395   3.162  0.5567 -0.1509  0.3051
  139DOPC  H18R19133   3.094   1.311   3.212 -0.3386  0.7515  0.9132
  139DOPC  H18S19134   3.128   1.480   3.231  3.2800  0.4123  0.4856
  139DOPC  H18T19135   3.256   1.377   3.154  0.5117 -0.3391  0.1101
  139DOPC   C3319136   3.166   0.845   2.140  0.6692  0.0182  0.6439
  139DOPC   H3X19137   3.228   0.762   2.100 -0.8014  0.9642 -4.2976
  139DOPC   H3Y19138   3.061   0.815   2.116  0.7697  0.4500 -0.3804
  139DOPC   C3419139   3.183   0.853   2.293 -0.5071  0.1570  0.0337
  139DOPC   H4X19140   3.107   0.921   2.338 -2.3182 -0.1931 -2.2964
  139DOPC   H4Y19141   3.287   0.886   2.313 -1.0119  1.8348  0.0497
  139DOPC   C3519142   3.148   0.721   2.363 -0.0621  0.2109  0.2975
  139DOPC   H5X19143   3.203   0.643   2.307 -0.9597 -0.1212 -0.1350
  139DOPC   H5Y19144   3.040   0.704   2.344  0.6248 -2.3949 -1.9316
  139DOPC   C3619145   3.200   0.713   2.506 -0.0478 -0.4921 -0.1897
  139DOPC   H6X19146   3.300   0.762   2.512 -0.5035  0.3816  0.3596
  139DOPC   H6Y19147   3.141   0.782   2.569  2.0221  0.2094  1.0941
  139DOPC   C3719148   3.221   0.567   2.560  1.0263 -0.0674 -0.1749
  139DOPC   H7X19149   3.270   0.511   2.477  1.2922 -0.8867  0.5141
  139DOPC   H7Y19150   3.292   0.570   2.646 -0.6954  4.2285  1.3531
  139DOPC   C3819151   3.093   0.494   2.605 -0.3209  0.7640 -0.9688
  139DOPC   H8X19152   3.124   0.394   2.642 -1.0809 -1.0571 -4.7386
  139DOPC   H8Y19153   3.029   0.481   2.515 -3.2618 -1.2765  1.2172
  139DOPC   C3919154   3.019   0.572   2.709 -0.2781  0.0596 -0.1851
  139DOPC   H9X19155   2.963   0.655   2.663  1.3824  1.3932  0.0916
  139DOPC  C31019156   3.010   0.553   2.845  0.6856  0.6487 -0.4341
  139DOPC  H10X19157   2.937   0.613   2.901 -0.1993 -1.5390  0.8432
  139DOPC  C31119158   3.087   0.448   2.925  0.0549 -0.5250  0.7254
  139DOPC  H11X19159   3.162   0.500   2.989  1.3185 -1.5316  0.1166
  139DOPC  H11Y19160   3.145   0.378   2.861 -0.4013 -1.3968  1.2504
  139DOPC  C31219161   2.992   0.371   3.022  0.4337 -0.4065 -0.2975
  139DOPC  H12X19162   2.907   0.324   2.968  1.4898  0.6093 -3.0853
  139DOPC  H12Y19163   2.940   0.452   3.077 -3.3956 -1.3446 -2.1753
  139DOPC  C31319164   3.070   0.268   3.107 -0.8945  0.4883 -0.0652
  139DOPC  H13X19165   3.107   0.188   3.039 -2.0521 -1.2582  1.2742
  139DOPC  H13Y19166   3.153   0.321   3.159  0.8104 -0.2849 -1.8753
  139DOPC  C31419167   2.982   0.193   3.206  0.8721 -0.4494  0.1506
  139DOPC  H14X19168   2.931   0.268   3.269  0.9002  1.5199 -2.0201
  139DOPC  H14Y19169   2.915   0.135   3.139 -1.0659  0.6955  1.0240
  139DOPC  C31519170   3.047   0.089   3.290  0.4761 -0.0890 -0.5574
  139DOPC  H15X19171   3.084   0.003   3.230  1.8659  0.4185 -0.4615
  139DOPC  H15Y19172   2.964   0.055   3.356  0.8548 -1.8538 -0.9549
  139DOPC  C31619173   3.154   0.149   3.383  0.9655  0.2871 -0.4127
  139DOPC  H16X19174   3.232   0.198   3.322  0.9137  0.0894 -0.6405
  139DOPC  H16Y19175   3.106   0.230   3.443  2.1531 -0.1056  1.1366
  139DOPC  C31719176   3.205   0.054   3.496 -0.2580  0.3946 -0.0698
  139DOPC  H17X19177   3.276   0.117   3.553  0.2195  1.2512 -1.5460
  139DOPC  H17Y19178   3.120   0.012   3.555 -0.1844  0.5990  0.1822
  139DOPC  C31819179   3.286   8.466   3.436 -0.0887 -0.2664 -0.3048
  139DOPC  H18X19180   3.392   8.498   3.427  0.4800 -1.5719  1.1663
  139DOPC  H18Y19181   3.279   8.383   3.511  1.6510  0.6392  0.9369
  139DOPC  H18Z19182   3.240   8.432   3.341 -0.3485 -2.1594  0.4495
  140DOPC     N19183   2.102   2.826   1.072  0.1183 -0.1818  0.1654
  140DOPC   C1219184   2.210   2.928   1.109  1.0256  0.2732  0.0381
  140DOPC  H12A19185   2.213   2.930   1.217  0.3125  1.3612  0.0634
  140DOPC  H12B19186   2.171   3.024   1.078 -3.3046 -1.0451  0.6915
  140DOPC   C1319187   2.063   2.834   0.934  0.8407  0.3793 -0.1250
  140DOPC  H13A19188   1.992   2.755   0.913  0.3051  1.0524 -0.9355
  140DOPC  H13B19189   2.010   2.924   0.906 -3.0709 -1.4908  0.5632
  140DOPC  H13C19190   2.145   2.809   0.868 -0.3664  0.7588 -1.8627
  140DOPC   C1419191   1.973   2.851   1.146  0.3183  0.4737  0.5359
  140DOPC  H14A19192   1.899   2.776   1.124  0.3804  0.4323  0.4667
  140DOPC  H14B19193   1.998   2.857   1.252  2.9829  2.5281 -0.0918
  140DOPC  H14C19194   1.936   2.949   1.121  1.1395  0.6573  0.0018
  140DOPC   C1519195   2.150   2.688   1.116  0.0749 -0.2890 -0.1673
  140DOPC  H15A19196   2.078   2.612   1.089 -1.0945  1.1914 -1.3764
  140DOPC  H15B19197   2.167   2.685   1.222 -1.3264 -0.5050  0.0720
  140DOPC  H15C19198   2.249   2.659   1.083  1.3098 -0.3089  3.1383
  140DOPC   C1119199   2.351   2.911   1.048 -0.0959 -0.8881 -0.1136
  140DOPC  H11A19200   2.346   2.939   0.940 -0.7630  2.5762  0.6814
  140DOPC  H11B19201   2.408   2.999   1.084 -3.1224  0.9659  0.5355
  140DOPC     P19202   2.481   2.774   1.225 -0.2067 -0.0841  0.1313
  140DOPC   O1319203   2.616   2.844   1.233 -0.1903 -0.5992  0.0812
  140DOPC   O1419204   2.485   2.624   1.248 -0.0365 -0.5923  0.0892
  140DOPC   O1219205   2.414   2.788   1.089 -0.0605  0.3019  0.0172
  140DOPC   O1119206   2.383   2.830   1.328 -0.3548 -0.1044 -0.1334
  140DOPC    C119207   2.406   2.967   1.379  0.1825  0.5150 -0.5206
  140DOPC    HA19208   2.306   3.007   1.404 -1.3634 -3.0435 -0.3600
  140DOPC    HB19209   2.451   3.038   1.307 -0.7748  2.0335  0.3274
  140DOPC    C219210   2.490   2.966   1.509 -0.5029  0.1439 -0.4971
  140DOPC    HS19211   2.588   2.919   1.487 -1.3056 -2.9802  1.8003
  140DOPC   O2119212   2.418   2.895   1.612 -0.1449 -0.5703 -0.3446
  140DOPC   C2119213   2.446   2.770   1.625 -0.0634  0.1653 -0.2582
  140DOPC   O2219214   2.537   2.706   1.578  0.1261 -0.5254  0.3288
  140DOPC   C2219215   2.351   2.709   1.720 -0.6415 -0.4828 -0.6127
  140DOPC   H2R19216   2.354   2.600   1.696  1.2051 -0.4454 -0.7034
  140DOPC   H2S19217   2.250   2.747   1.695  0.6903  1.9154 -2.8445
  140DOPC    C319218   2.519   3.110   1.559 -0.2849 -0.1638 -0.3800
  140DOPC    HX19219   2.418   3.154   1.570 -0.2657 -0.7425  3.7631
  140DOPC    HY19220   2.570   3.157   1.472 -2.4690  2.1258 -0.5458
  140DOPC   O3119221   2.599   3.129   1.687  0.3189  0.1612 -0.3374
  140DOPC   C3119222   2.516   3.182   1.786 -1.1163  0.7321  0.2912
  140DOPC   O3219223   2.405   3.218   1.768  0.4583  0.0146 -0.0969
  140DOPC   C3219224   2.588   3.166   1.916 -0.1242  0.4440  0.4943
  140DOPC   H2X19225   2.675   3.097   1.903 -1.5388 -1.0521 -1.6674
  140DOPC   H2Y19226   2.626   3.270   1.931  0.0073  0.2212  1.7814
  140DOPC   C2319227   2.381   2.748   1.863  0.6754  0.2809  0.3490
  140DOPC   H3R19228   2.369   2.858   1.878 -0.2446  0.2705 -0.2568
  140DOPC   H3S19229   2.487   2.729   1.889  0.6513 -0.1511  0.1303
  140DOPC   C2419230   2.277   2.684   1.968  0.6561 -0.1384 -0.1742
  140DOPC   H4R19231   2.177   2.676   1.921 -0.2967 -1.5906  1.9421
  140DOPC   H4S19232   2.277   2.749   2.058  2.6259  2.7760 -2.1266
  140DOPC   C2519233   2.309   2.537   2.024 -0.8391 -0.1631  0.3546
  140DOPC   H5R19234   2.407   2.538   2.076 -1.2054  3.0288  1.2287
  140DOPC   H5S19235   2.310   2.469   1.937 -2.6067 -0.2812  0.3855
  140DOPC   C2619236   2.206   2.488   2.125 -0.0136  0.4748  0.0341
  140DOPC   H6R19237   2.107   2.490   2.073 -1.1748 -1.5457  1.9669
  140DOPC   H6S19238   2.193   2.553   2.214 -0.4770  0.4411 -0.0042
  140DOPC   C2719239   2.242   2.345   2.178  0.4736 -0.3592  0.1372
  140DOPC   H7R19240   2.351   2.348   2.196  0.1339  0.7849  2.3900
  140DOPC   H7S19241   2.229   2.268   2.099 -0.5682  0.3152 -0.3717
  140DOPC   C2819242   2.166   2.309   2.313 -0.3848 -0.0884  0.5984
  140DOPC   H8R19243   2.178   2.198   2.321  0.7341  0.0486  1.0497
  140DOPC   H8S19244   2.058   2.330   2.298 -0.0251  1.3092 -0.1873
  140DOPC   C2919245   2.216   2.371   2.435  0.9285  0.5654  0.0782
  140DOPC   H9R19246   2.319   2.348   2.467  0.0119 -3.8812  0.4030
  140DOPC  C21019247   2.138   2.454   2.508  0.6801 -0.7626  0.0464
  140DOPC  H10R19248   2.171   2.479   2.611 -2.3525 -2.2823  1.5232
  140DOPC  C21119249   1.994   2.491   2.486  0.5351 -0.6511  0.2979
  140DOPC  H11R19250   1.931   2.402   2.503 -0.6911  0.3462  1.1087
  140DOPC  H11S19251   1.987   2.493   2.375 -1.2660 -2.3765  0.3277
  140DOPC  C21219252   1.950   2.624   2.555  0.1742 -0.5896  0.0172
  140DOPC  H12R19253   1.882   2.672   2.482  2.2505  1.0692 -0.9420
  140DOPC  H12S19254   2.032   2.696   2.576  0.9872 -2.0632  2.2526
  140DOPC  C21319255   1.874   2.608   2.692 -0.1115  0.4148 -0.3622
  140DOPC  H13R19256   1.920   2.531   2.758 -1.3863  1.1330  1.4644
  140DOPC  H13S19257   1.780   2.558   2.660  1.2543 -0.6806 -2.9420
  140DOPC  C21419258   1.854   2.746   2.763  0.1601  0.4892 -0.6720
  140DOPC  H14R19259   1.775   2.801   2.708  0.0649  0.5031 -0.5224
  140DOPC  H14S19260   1.947   2.806   2.758 -1.1137  2.6392  0.2243
  140DOPC  C21519261   1.826   2.742   2.913  0.9467 -0.5897 -0.6579
  140DOPC  H15R19262   1.913   2.692   2.959  1.5299  1.2170  0.3123
  140DOPC  H15S19263   1.729   2.689   2.923  1.4043 -1.1184  1.3487
  140DOPC  C21619264   1.799   2.881   2.967  0.1913  0.1471  0.0223
  140DOPC  H16R19265   1.703   2.913   2.920 -1.4444 -1.6972  1.9175
  140DOPC  H16S19266   1.888   2.946   2.957  1.0286 -1.0226 -0.3348
  140DOPC  C21719267   1.778   2.881   3.118 -0.3097 -0.3068 -0.2374
  140DOPC  H17R19268   1.875   2.855   3.166  0.2137  1.4990 -0.2449
  140DOPC  H17S19269   1.695   2.810   3.141  0.1160 -1.2496 -1.5309
  140DOPC  C21819270   1.737   3.015   3.171  0.0804 -0.7344 -0.3615
  140DOPC  H18R19271   1.806   3.099   3.143 -0.7347 -0.4234 -1.5068
  140DOPC  H18S19272   1.736   3.011   3.282  0.3587 -1.7513 -0.3848
  140DOPC  H18T19273   1.634   3.040   3.139 -0.1274 -0.1401  0.7261
  140DOPC   C3319274   2.501   3.116   2.028  0.5381  0.1220 -0.1675
  140DOPC   H3X19275   2.471   3.011   2.009 -3.8019  1.0384  0.5675
  140DOPC   H3Y19276   2.410   3.178   2.044  0.1539 -0.5676  0.3834
  140DOPC   C3419277   2.575   3.111   2.161 -0.8082  0.0965 -0.2326
  140DOPC   H4X19278   2.674   3.066   2.139 -0.1690  0.9842  0.7163
  140DOPC   H4Y19279   2.533   3.034   2.230  1.1008 -3.4917 -2.7642
  140DOPC   C3519280   2.584   3.249   2.235 -0.4263 -0.3663  0.5153
  140DOPC   H5X19281   2.485   3.299   2.234  0.4506  1.4734 -0.4851
  140DOPC   H5Y19282   2.661   3.314   2.187 -1.1825  0.9556  1.0434
  140DOPC   C3619283   2.616   3.220   2.380  0.0818  0.0680  0.1811
  140DOPC   H6X19284   2.534   3.154   2.416  1.6313 -1.8074  0.4558
  140DOPC   H6Y19285   2.714   3.167   2.385  0.3229  0.5275  0.5308
  140DOPC   C3719286   2.629   3.345   2.473  0.7495 -0.3416 -0.3722
  140DOPC   H7X19287   2.729   3.390   2.457 -0.2035  2.3756  0.6710
  140DOPC   H7Y19288   2.555   3.427   2.458  3.0438  2.2981  1.4778
  140DOPC   C3819289   2.622   3.306   2.618 -0.4234  0.1310  0.5521
  140DOPC   H8X19290   2.524   3.259   2.642  0.3985 -2.5069 -0.8325
  140DOPC   H8Y19291   2.635   3.399   2.678  0.1892 -0.5001  1.4313
  140DOPC   C3919292   2.744   3.207   2.642 -0.2543 -0.0273  1.1399
  140DOPC   H9X19293   2.736   3.104   2.605 -0.2482  0.2321  0.4107
  140DOPC  C31019294   2.857   3.237   2.709 -0.2485 -0.2429  0.2070
  140DOPC  H10X19295   2.934   3.162   2.735 -0.3389 -0.2318  0.5186
  140DOPC  C31119296   2.881   3.372   2.761 -0.2265 -0.2320 -0.0423
  140DOPC  H11X19297   2.823   3.450   2.707  1.4488  1.1703  0.1196
  140DOPC  H11Y19298   2.984   3.403   2.735 -0.9233  1.4436 -1.0058
  140DOPC  C31219299   2.854   3.391   2.912 -0.9728  0.4515 -0.0875
  140DOPC  H12X19300   2.889   3.301   2.967  0.4920  0.2761 -1.2453
  140DOPC  H12Y19301   2.745   3.407   2.927 -0.6257  1.4663  1.7169
  140DOPC  C31319302   2.918   3.516   2.978  0.2383  0.5055  0.3002
  140DOPC  H13X19303   2.863   3.540   3.071  0.0440  0.9280  0.0778
  140DOPC  H13Y19304   3.022   3.489   3.005  0.1338 -0.7512 -0.4714
  140DOPC  C31419305   2.904   3.642   2.903 -0.4801 -0.2349  0.3738
  140DOPC  H14X19306   2.970   3.637   2.814 -1.7175  3.0861 -0.8988
  140DOPC  H14Y19307   2.800   3.649   2.865 -1.0458 -0.9834  1.6941
  140DOPC  C31519308   2.922   3.770   2.989 -0.2756  0.5969  0.5530
  140DOPC  H15X19309   3.003   3.737   3.058 -0.5087  0.9865  1.0146
  140DOPC  H15Y19310   2.828   3.792   3.043 -0.5832  0.3389  0.1333
  140DOPC  C31619311   2.967   3.888   2.905  0.0571  0.0293  0.0998
  140DOPC  H16X19312   3.060   3.855   2.854 -0.9164  0.3472 -2.0353
  140DOPC  H16Y19313   2.897   3.915   2.822  0.8312  1.1766 -0.1982
  140DOPC  C31719314   2.997   4.013   2.984 -0.0337 -1.0794  0.4656
  140DOPC  H17X19315   3.064   3.975   3.064  1.2911  0.8963  0.3784
  140DOPC  H17Y19316   3.059   4.074   2.914 -2.5654  1.2481  0.0504
  140DOPC  C31819317   2.885   4.098   3.035 -0.4858  0.1700  0.1439
  140DOPC  H18X19318   2.920   4.189   3.088  0.2234 -0.1484  0.2234
  140DOPC  H18Y19319   2.810   4.123   2.957  0.5564  0.6176 -0.7396
  140DOPC  H18Z19320   2.831   4.039   3.112  0.3433 -1.3332 -0.3866
  141DOPC     N19321   6.073   2.000   1.366  0.4201 -0.3006 -0.2393
  141DOPC   C1219322   6.048   1.962   1.510  0.2127 -0.4460 -0.1320
  141DOPC  H12A19323   6.038   2.054   1.566 -0.9569  0.0182 -1.0594
  141DOPC  H12B19324   6.130   1.902   1.548 -0.0052 -1.9989 -1.9530
  141DOPC   C1319325   6.071   1.870   1.289  0.8879 -0.0094  0.0313
  141DOPC  H13A19326   5.982   1.812   1.303  1.6947 -1.4331 -0.5667
  141DOPC  H13B19327   6.085   1.896   1.185  0.5818  0.8097  0.1870
  141DOPC  H13C19328   6.152   1.805   1.316 -0.7048 -1.0687  2.5532
  141DOPC   C1419329   6.196   2.067   1.341 -0.7102  0.8878 -0.0714
  141DOPC  H14A19330   6.279   2.021   1.391 -2.1334 -0.4861  1.1213
  141DOPC  H14B19331   6.214   2.082   1.235  0.1043  0.1856 -0.0399
  141DOPC  H14C19332   6.194   2.167   1.384  0.4368  0.9203 -0.0744
  141DOPC   C1519333   5.967   2.097   1.321  0.3033 -0.1641 -0.5569
  141DOPC  H15A19334   5.872   2.062   1.358  0.4667 -0.4725 -0.4293
  141DOPC  H15B19335   5.961   2.096   1.213 -0.0807 -0.5632 -0.5311
  141DOPC  H15C19336   5.992   2.196   1.357  2.4923 -0.6447 -0.5853
  141DOPC   C1119337   5.919   1.885   1.542 -0.3087  0.1873 -0.1397
  141DOPC  H11A19338   5.922   1.784   1.495 -0.4473  0.8791 -1.6878
  141DOPC  H11B19339   5.913   1.862   1.650 -0.9540 -0.6909 -0.3525
  141DOPC     P19340   5.733   2.067   1.573 -0.3141 -0.5531 -0.0689
  141DOPC   O1319341   5.682   2.157   1.470  0.6122  0.4274  0.0450
  141DOPC   O1419342   5.829   2.129   1.668 -0.3063 -0.5269 -0.4066
  141DOPC   O1219343   5.802   1.945   1.500 -0.1397  0.1099 -0.0178
  141DOPC   O1119344   5.610   2.003   1.652  0.2425  0.4810  0.4678
  141DOPC    C119345   5.546   1.889   1.617 -0.5471 -0.2580  0.4944
  141DOPC    HA19346   5.608   1.824   1.552 -0.4414  1.7463 -1.5445
  141DOPC    HB19347   5.458   1.922   1.556 -0.5090 -1.6465 -0.3626
  141DOPC    C219348   5.484   1.813   1.736  0.2257  0.5251 -0.1325
  141DOPC    HS19349   5.424   1.734   1.685 -1.2787  1.0038  0.8304
  141DOPC   O2119350   5.414   1.892   1.828  0.2525 -0.3821 -0.2194
  141DOPC   C2119351   5.313   1.832   1.894 -0.1428 -0.3173  0.1453
  141DOPC   O2219352   5.259   1.727   1.867 -0.1220  0.2246  0.5932
  141DOPC   C2219353   5.269   1.932   2.005  0.2597  0.5635  0.3812
  141DOPC   H2R19354   5.197   1.878   2.071 -0.5101  1.6704  0.4638
  141DOPC   H2S19355   5.223   2.013   1.946 -0.8757 -0.8708 -0.7966
  141DOPC    C319356   5.599   1.727   1.804 -0.4889 -0.0996 -0.3674
  141DOPC    HX19357   5.674   1.796   1.848 -0.5185 -0.7725  0.7958
  141DOPC    HY19358   5.641   1.661   1.725 -2.3635 -1.9367  0.0838
  141DOPC   O3119359   5.551   1.648   1.910 -0.3114 -0.0143 -0.1337
  141DOPC   C3119360   5.488   1.531   1.881 -0.1325 -0.2910  0.3962
  141DOPC   O3219361   5.489   1.478   1.773  0.1375  0.4986 -0.1866
  141DOPC   C3219362   5.409   1.480   2.005 -0.5818 -0.0439  0.1247
  141DOPC   H2X19363   5.483   1.477   2.087  0.2269  0.0084 -0.5875
  141DOPC   H2Y19364   5.340   1.564   2.030  1.0303  1.6647 -0.9050
  141DOPC   C2319365   5.396   1.971   2.096  0.3888  1.5698 -0.2110
  141DOPC   H3R19366   5.370   2.056   2.162 -0.3204  1.3696 -0.2195
  141DOPC   H3S19367   5.471   2.007   2.023  2.7240  0.4067  1.4965
  141DOPC   C2419368   5.455   1.868   2.191  0.0515  0.5326  0.2044
  141DOPC   H4R19369   5.538   1.910   2.253  1.3007 -0.2967 -0.8602
  141DOPC   H4S19370   5.497   1.781   2.138  0.4123  0.3706  0.7436
  141DOPC   C2519371   5.357   1.807   2.295  0.1862 -0.6246  0.2373
  141DOPC   H5R19372   5.281   1.745   2.243 -0.8619 -2.1716  3.3659
  141DOPC   H5S19373   5.317   1.899   2.343 -0.7897  1.3572 -3.9258
  141DOPC   C2619374   5.418   1.713   2.403  0.2761 -0.2654 -0.4401
  141DOPC   H6R19375   5.477   1.634   2.351 -0.4198  0.3929 -2.3179
  141DOPC   H6S19376   5.337   1.664   2.461 -1.1979  1.0215 -1.3316
  141DOPC   C2719377   5.510   1.796   2.488 -0.6631  0.3597  0.0139
  141DOPC   H7R19378   5.464   1.892   2.521  0.9070  1.8497 -1.9144
  141DOPC   H7S19379   5.602   1.807   2.427 -2.3196  0.0199 -2.7300
  141DOPC   C2819380   5.554   1.713   2.617  0.2727 -0.0987  0.4869
  141DOPC   H8R19381   5.588   1.613   2.581  0.5048  0.1561 -0.0147
  141DOPC   H8S19382   5.465   1.685   2.677  0.9058  0.4297  1.7165
  141DOPC   C2919383   5.665   1.775   2.706 -0.2668  0.3559  0.6916
  141DOPC   H9R19384   5.725   1.854   2.657 -0.1140 -0.7824 -1.0507
  141DOPC  C21019385   5.682   1.757   2.839 -0.4375  0.0041 -0.1150
  141DOPC  H10R19386   5.763   1.814   2.886 -0.0832 -0.6438  0.0710
  141DOPC  C21119387   5.595   1.677   2.929  0.4786 -0.1211  0.1228
  141DOPC  H11R19388   5.654   1.647   3.018  1.0618  0.7808  0.0540
  141DOPC  H11S19389   5.555   1.587   2.877 -0.4826  1.2395 -1.6126
  141DOPC  C21219390   5.466   1.748   2.982 -0.3398  0.1059  0.4498
  141DOPC  H12R19391   5.388   1.670   2.999 -1.9730  2.1557  3.5118
  141DOPC  H12S19392   5.442   1.812   2.895 -1.0193 -0.6971  0.0281
  141DOPC  C21319393   5.490   1.833   3.106  1.1430  0.5714  0.2180
  141DOPC  H13R19394   5.541   1.926   3.077 -0.1119  1.0141 -0.6493
  141DOPC  H13S19395   5.556   1.788   3.183  2.0151  2.0793  0.3857
  141DOPC  C21419396   5.361   1.860   3.184  0.4096  0.2059  0.4128
  141DOPC  H14R19397   5.377   1.891   3.289 -0.3054  4.2222 -0.4887
  141DOPC  H14S19398   5.307   1.763   3.183  0.8316 -0.0451 -1.3934
  141DOPC  C21519399   5.266   1.949   3.109 -0.5348  0.5176 -0.7476
  141DOPC  H15R19400   5.274   1.908   3.006 -1.5828 -2.4544  0.2591
  141DOPC  H15S19401   5.305   2.053   3.115  2.5123 -0.6100  0.8166
  141DOPC  C21619402   5.127   1.940   3.179 -0.3045  0.3244  0.1635
  141DOPC  H16R19403   5.133   1.982   3.281 -0.4166  0.7062  0.0120
  141DOPC  H16S19404   5.084   1.839   3.197 -0.5391  0.3796 -0.0840
  141DOPC  C21719405   5.020   2.017   3.090 -1.9309 -0.0496  0.3082
  141DOPC  H17R19406   5.029   1.968   2.990  1.7001  0.9573  0.0222
  141DOPC  H17S19407   5.048   2.123   3.078  1.5727 -0.9289 -0.2988
  141DOPC  C21819408   4.880   2.004   3.148 -0.1586  0.0147  0.0361
  141DOPC  H18R19409   4.881   2.043   3.252 -1.7339 -1.6512  0.7305
  141DOPC  H18S19410   4.845   1.899   3.148  0.9273 -0.3785  1.8702
  141DOPC  H18T19411   4.807   2.068   3.091 -0.1118 -0.0277 -0.0718
  141DOPC   C3319412   5.314   1.359   1.977 -0.6970 -0.1228 -0.0675
  141DOPC   H3X19413   5.372   1.285   1.918  0.3297  1.6273 -1.3292
  141DOPC   H3Y19414   5.230   1.389   1.910  0.2458  0.8130 -0.8532
  141DOPC   C3419415   5.253   1.289   2.098  0.2099 -0.7328  0.1453
  141DOPC   H4X19416   5.325   1.224   2.153  0.2973 -0.9810 -0.2573
  141DOPC   H4Y19417   5.162   1.232   2.070  0.5891 -2.1741  1.6605
  141DOPC   C3519418   5.191   1.386   2.206 -0.0851 -0.0557  0.1440
  141DOPC   H5X19419   5.262   1.468   2.234  1.4114 -0.9708 -0.8326
  141DOPC   H5Y19420   5.162   1.331   2.298 -0.7556  0.4170  0.2244
  141DOPC   C3619421   5.056   1.442   2.170 -0.3501  0.1764  0.1842
  141DOPC   H6X19422   5.059   1.508   2.080  0.2454 -1.3677 -0.9705
  141DOPC   H6Y19423   4.991   1.358   2.140  0.4367 -0.6711  0.8028
  141DOPC   C3719424   4.994   1.516   2.278 -0.0753  0.6419  0.4953
  141DOPC   H7X19425   4.994   1.441   2.360  2.1424 -1.5007 -1.3601
  141DOPC   H7Y19426   5.064   1.598   2.305  3.4100 -2.5022  1.8412
  141DOPC   C3819427   4.855   1.553   2.254 -0.0370 -0.0401 -0.3888
  141DOPC   H8X19428   4.793   1.462   2.241  0.9473 -0.7438 -0.2974
  141DOPC   H8Y19429   4.850   1.605   2.156  1.0511  1.1005  0.1261
  141DOPC   C3919430   4.803   1.648   2.360 -1.3416  0.2530 -0.6340
  141DOPC   H9X19431   4.832   1.754   2.348 -0.9433  0.2137 -0.0712
  141DOPC  C31019432   4.724   1.618   2.466 -0.7291  0.2348 -0.3290
  141DOPC  H10X19433   4.719   1.703   2.536  0.3505 -1.0608  1.4000
  141DOPC  C31119434   4.662   1.487   2.503  0.0119  0.2148 -0.5496
  141DOPC  H11X19435   4.699   1.417   2.426 -0.3406  0.5038 -0.9841
  141DOPC  H11Y19436   4.552   1.496   2.496  0.0893 -0.2426 -3.5660
  141DOPC  C31219437   4.703   1.435   2.644  0.8719 -0.4291 -0.1548
  141DOPC  H12X19438   4.695   1.514   2.722 -0.8450 -0.7953  0.0767
  141DOPC  H12Y19439   4.806   1.394   2.636  0.7430 -0.7044 -0.4085
  141DOPC  C31319440   4.606   1.327   2.685 -0.6653 -0.1841  0.1739
  141DOPC  H13X19441   4.505   1.369   2.698 -0.8936 -0.4277 -0.7428
  141DOPC  H13Y19442   4.598   1.253   2.602  0.1523  0.2014 -0.2637
  141DOPC  C31419443   4.673   1.246   2.799  0.4483 -0.1917  0.7424
  141DOPC  H14X19444   4.758   1.187   2.759 -1.0640 -2.1514  0.2204
  141DOPC  H14Y19445   4.720   1.318   2.870 -2.5705  0.5001  2.2297
  141DOPC  C31519446   4.580   1.145   2.871 -0.7017 -0.5665  0.5082
  141DOPC  H15X19447   4.475   1.177   2.883 -0.8323 -0.7484 -0.1414
  141DOPC  H15Y19448   4.614   1.139   2.977  0.1159 -0.4862  0.2619
  141DOPC  C31619449   4.585   1.005   2.810 -0.4946  0.5337 -0.1612
  141DOPC  H16X19450   4.547   1.003   2.706 -0.9974 -2.6048  0.0018
  141DOPC  H16Y19451   4.694   0.984   2.814 -0.1863  2.1539  1.3938
  141DOPC  C31719452   4.502   0.912   2.895 -0.9118 -0.1111 -0.4461
  141DOPC  H17X19453   4.537   0.928   2.999  1.0090  2.7952 -1.4309
  141DOPC  H17Y19454   4.393   0.933   2.888 -0.7449  1.5080  1.1216
  141DOPC  C31819455   4.535   0.764   2.869 -0.3491  0.4791  0.4425
  141DOPC  H18X19456   4.465   0.702   2.929 -1.3714  0.3416 -0.8419
  141DOPC  H18Y19457   4.528   0.749   2.759 -0.9357  1.2889  0.3627
  141DOPC  H18Z19458   4.639   0.743   2.903 -0.4420  1.7892  1.6454
  142DOPC     N19459   1.366   2.408   0.693  0.2226  0.1714 -0.5282
  142DOPC   C1219460   1.486   2.346   0.766 -0.0379  0.5128  0.0583
  142DOPC  H12A19461   1.578   2.355   0.711  0.9842 -1.9071  1.2393
  142DOPC  H12B19462   1.472   2.240   0.777 -2.4574  0.8817  1.1997
  142DOPC   C1319463   1.393   2.554   0.679 -0.0370  0.4705  0.3609
  142DOPC  H13A19464   1.472   2.580   0.610 -0.1761  4.7216  1.5588
  142DOPC  H13B19465   1.301   2.598   0.644 -0.0243 -1.5646 -2.6205
  142DOPC  H13C19466   1.409   2.594   0.778  3.0566 -0.5254  0.3600
  142DOPC   C1419467   1.237   2.390   0.761  0.1499 -0.0921  0.3440
  142DOPC  H14A19468   1.246   2.436   0.859 -0.4632  2.1795 -0.5875
  142DOPC  H14B19469   1.155   2.438   0.710 -1.8832 -2.0608  1.5871
  142DOPC  H14C19470   1.223   2.284   0.768  2.6003 -0.3986  1.6618
  142DOPC   C1519471   1.361   2.360   0.559  0.5833 -0.6002  0.0676
  142DOPC  H15A19472   1.431   2.402   0.488 -2.1019 -0.8133 -2.9163
  142DOPC  H15B19473   1.265   2.393   0.520  1.2045  1.8024  0.3884
  142DOPC  H15C19474   1.338   2.255   0.558 -0.0337 -0.4750 -1.2836
  142DOPC   C1119475   1.491   2.383   0.918  0.9233  0.3297 -0.2031
  142DOPC  H11A19476   1.585   2.346   0.964  0.8400 -0.0721 -0.3506
  142DOPC  H11B19477   1.499   2.493   0.922 -0.8606  0.5272 -0.8590
  142DOPC     P19478   1.371   2.197   1.041  0.1846 -0.2629  0.0460
  142DOPC   O1319479   1.411   2.096   0.936 -0.0916  0.1135  0.0534
  142DOPC   O1419480   1.242   2.173   1.113 -0.2831 -0.5813 -0.4533
  142DOPC   O1219481   1.377   2.340   0.989  0.1770  0.3138  0.2543
  142DOPC   O1119482   1.490   2.194   1.147 -0.0417 -0.5403  0.0405
  142DOPC    C119483   1.505   2.293   1.246 -0.2875  0.6730  0.0212
  142DOPC    HA19484   1.412   2.310   1.305  0.0729 -3.6878  2.2801
  142DOPC    HB19485   1.537   2.394   1.212  1.7042 -0.5428 -2.0048
  142DOPC    C219486   1.605   2.253   1.371 -0.5075 -0.2714 -0.2884
  142DOPC    HS19487   1.707   2.249   1.327 -0.0118  2.3564  0.4116
  142DOPC   O2119488   1.557   2.128   1.427 -0.7735  0.1597 -0.4400
  142DOPC   C2119489   1.658   2.044   1.472 -0.2741  0.1162  0.1168
  142DOPC   O2219490   1.769   2.042   1.420  0.1768  0.1939 -0.0740
  142DOPC   C2219491   1.600   1.946   1.579  0.4833 -0.4550  0.5304
  142DOPC   H2R19492   1.685   1.888   1.621  0.5192 -1.2501 -0.5805
  142DOPC   H2S19493   1.544   1.868   1.522 -0.8173  1.2768 -0.6442
  142DOPC    C319494   1.604   2.368   1.474 -0.0269 -0.2147  0.3016
  142DOPC    HX19495   1.498   2.375   1.504  0.0451 -0.0563  0.5217
  142DOPC    HY19496   1.640   2.464   1.430  3.0337 -0.8629  1.1310
  142DOPC   O3119497   1.681   2.338   1.589  0.2987 -0.0509  0.0970
  142DOPC   C3119498   1.770   2.426   1.635  0.4498 -0.0406 -0.1001
  142DOPC   O3219499   1.773   2.545   1.601 -0.4184  0.1977 -0.0505
  142DOPC   C3219500   1.869   2.354   1.731 -0.1067  0.5588  0.1980
  142DOPC   H2X19501   1.815   2.275   1.789  1.4170 -2.2542 -1.9310
  142DOPC   H2Y19502   1.937   2.296   1.665  0.4258 -0.6596  1.7470
  142DOPC   C2319503   1.507   2.021   1.680 -0.3448 -0.6286 -0.5630
  142DOPC   H3R19504   1.423   2.065   1.623  0.2477  0.1327 -0.8719
  142DOPC   H3S19505   1.558   2.112   1.718 -0.8291 -0.8381  0.6239
  142DOPC   C2419506   1.445   1.931   1.794  0.1530 -0.2667  0.3113
  142DOPC   H4R19507   1.434   1.828   1.754 -0.8179  0.1214 -0.4860
  142DOPC   H4S19508   1.343   1.972   1.812  0.3027  0.2717 -0.0403
  142DOPC   C2519509   1.521   1.915   1.928 -0.3989 -0.3455  0.7387
  142DOPC   H5R19510   1.531   2.015   1.976  0.6440 -0.4363  0.7286
  142DOPC   H5S19511   1.617   1.860   1.919  0.6257  0.9157  3.0843
  142DOPC   C2619512   1.422   1.843   2.018 -0.2120 -0.3710 -0.2394
  142DOPC   H6R19513   1.376   1.761   1.959  2.1030 -0.6851 -1.7273
  142DOPC   H6S19514   1.344   1.914   2.052  2.0164  0.8385  2.7707
  142DOPC   C2719515   1.488   1.785   2.148 -0.3870 -0.3427  0.5956
  142DOPC   H7R19516   1.536   1.871   2.199  0.9159 -1.3491  1.1115
  142DOPC   H7S19517   1.581   1.731   2.122  0.8985  2.1292 -0.3050
  142DOPC   C2819518   1.403   1.710   2.246 -0.5510  0.1837 -1.3452
  142DOPC   H8R19519   1.360   1.613   2.212  0.1695 -0.7707  0.3538
  142DOPC   H8S19520   1.320   1.776   2.279  0.2934  0.2164  0.8805
  142DOPC   C2919521   1.477   1.687   2.378  0.1395  0.2603  1.1748
  142DOPC   H9R19522   1.585   1.668   2.374  0.1997  0.8572 -0.7286
  142DOPC  C21019523   1.411   1.687   2.501 -0.1847  0.3907  0.8909
  142DOPC  H10R19524   1.468   1.664   2.592  1.6069  1.0829 -0.0175
  142DOPC  C21119525   1.270   1.722   2.520  0.0569 -0.2482  0.1454
  142DOPC  H11R19526   1.209   1.636   2.488  0.8022 -1.0772  0.8722
  142DOPC  H11S19527   1.239   1.809   2.458  2.3832 -0.1874 -1.0257
  142DOPC  C21219528   1.236   1.737   2.670  0.0143  0.6831  0.9169
  142DOPC  H12R19529   1.312   1.801   2.719  1.1255 -0.8069  1.2086
  142DOPC  H12S19530   1.245   1.637   2.717  2.0857 -0.0826 -0.9765
  142DOPC  C21319531   1.097   1.776   2.700 -0.6476  0.0899 -0.5151
  142DOPC  H13R19532   1.022   1.704   2.660  0.4093 -1.8009  0.7425
  142DOPC  H13S19533   1.076   1.868   2.642 -2.0194 -1.2644 -2.2754
  142DOPC  C21419534   1.074   1.814   2.851 -0.8814 -0.0030 -0.0721
  142DOPC  H14R19535   1.170   1.860   2.883 -0.0551 -1.1313 -0.8234
  142DOPC  H14S19536   1.061   1.717   2.904 -0.3482  0.6858  1.3771
  142DOPC  C21519537   0.940   1.889   2.882  0.3560  0.4524 -0.0871
  142DOPC  H15R19538   0.956   1.997   2.864 -0.5951  1.0470  2.3471
  142DOPC  H15S19539   0.916   1.874   2.989 -1.3807  0.2688 -0.4733
  142DOPC  C21619540   0.818   1.834   2.803  0.3877  0.4113 -0.3019
  142DOPC  H16R19541   0.792   1.731   2.836 -1.2486  1.2564  1.2028
  142DOPC  H16S19542   0.821   1.830   2.692 -1.5410  0.8374 -0.4127
  142DOPC  C21719543   0.687   1.923   2.807 -0.4852  0.2996 -0.1719
  142DOPC  H17R19544   0.602   1.865   2.765 -1.4555  2.5655 -1.5662
  142DOPC  H17S19545   0.705   2.011   2.742  1.4902 -0.3714 -0.5901
  142DOPC  C21819546   0.654   1.971   2.951 -0.0809 -0.4225 -0.0640
  142DOPC  H18R19547   0.645   1.885   3.022 -1.0561  1.0163  1.6400
  142DOPC  H18S19548   0.550   2.009   2.944 -0.0208 -0.6061 -2.9601
  142DOPC  H18T19549   0.718   2.049   2.997 -0.3494  0.2442 -0.8092
  142DOPC   C3319550   1.955   2.448   1.810 -0.5258  0.3492  0.3858
  142DOPC   H3X19551   2.021   2.522   1.760  1.1835 -0.6828  0.9973
  142DOPC   H3Y19552   2.022   2.386   1.874 -0.8338 -1.1389 -0.6784
  142DOPC   C3419553   1.875   2.531   1.907  0.1464 -0.1878 -0.7220
  142DOPC   H4X19554   1.816   2.610   1.856 -0.3856  0.9512  1.5222
  142DOPC   H4Y19555   1.952   2.568   1.978  0.0579 -0.6894 -0.3635
  142DOPC   C3519556   1.781   2.450   2.007  0.0613  0.1145  0.0598
  142DOPC   H5X19557   1.807   2.343   2.018  0.7008  0.1456 -1.0288
  142DOPC   H5Y19558   1.689   2.434   1.948  2.2235 -3.3504 -2.7165
  142DOPC   C3619559   1.742   2.530   2.136  0.3323  0.1439  0.1541
  142DOPC   H6X19560   1.822   2.532   2.214  0.2810  1.0962  0.2051
  142DOPC   H6Y19561   1.720   2.634   2.102  2.1339  0.2259 -0.9170
  142DOPC   C3719562   1.618   2.467   2.205  0.3711  0.6695 -0.5174
  142DOPC   H7X19563   1.529   2.492   2.144  0.6228 -0.5579 -1.4183
  142DOPC   H7Y19564   1.620   2.356   2.201 -1.1907  0.5877  0.5247
  142DOPC   C3819565   1.576   2.505   2.345  0.1336  0.0048  0.0829
  142DOPC   H8X19566   1.646   2.467   2.423  1.3488 -1.7783 -1.7710
  142DOPC   H8Y19567   1.481   2.453   2.369  0.2089 -0.0215  0.3270
  142DOPC   C3919568   1.570   2.655   2.356 -0.2555  0.2819  0.1348
  142DOPC   H9X19569   1.620   2.719   2.282 -0.9666  1.3090  0.5140
  142DOPC  C31019570   1.503   2.709   2.459 -0.2269 -0.5482  0.0122
  142DOPC  H10X19571   1.492   2.818   2.460  3.9409  0.0162  0.6054
  142DOPC  C31119572   1.427   2.636   2.560 -0.9814 -0.1458  0.2235
  142DOPC  H11X19573   1.457   2.529   2.564 -0.2703 -0.0024 -1.0722
  142DOPC  H11Y19574   1.321   2.652   2.532 -0.3287  2.8254 -0.9036
  142DOPC  C31219575   1.437   2.701   2.701  0.2608 -0.2439  0.5125
  142DOPC  H12X19576   1.402   2.806   2.695  0.3317 -0.1146  1.8895
  142DOPC  H12Y19577   1.543   2.705   2.735 -0.2932  0.3449  2.2855
  142DOPC  C31319578   1.356   2.629   2.813  0.5752  0.8631  0.0678
  142DOPC  H13X19579   1.363   2.682   2.910 -0.1243  1.0177  0.0386
  142DOPC  H13Y19580   1.251   2.633   2.776  0.4560  3.0340  0.4651
  142DOPC  C31419581   1.392   2.485   2.833 -0.2059 -0.0184 -0.0562
  142DOPC  H14X19582   1.317   2.439   2.901  0.1061 -0.5746 -0.0743
  142DOPC  H14Y19583   1.379   2.437   2.734 -2.3968  1.8759 -0.7628
  142DOPC  C31519584   1.533   2.465   2.895  0.9946  0.5771  0.4973
  142DOPC  H15X19585   1.610   2.500   2.823  0.8509  0.3486  0.2290
  142DOPC  H15Y19586   1.552   2.356   2.910  1.1054  0.4888 -0.2463
  142DOPC  C31619587   1.556   2.525   3.031 -0.1311 -0.0567  0.3486
  142DOPC  H16X19588   1.664   2.508   3.050 -0.2946  0.1597  1.5336
  142DOPC  H16Y19589   1.544   2.636   3.032  0.4376  0.0034  0.4369
  142DOPC  C31719590   1.463   2.471   3.138 -0.2813 -0.0639 -0.6896
  142DOPC  H17X19591   1.358   2.505   3.126 -0.7779 -0.7757  1.2144
  142DOPC  H17Y19592   1.464   2.360   3.135  0.8314 -0.0492 -1.8550
  142DOPC  C31819593   1.516   2.509   3.279 -0.9476 -0.0734  0.1866
  142DOPC  H18X19594   1.437   2.503   3.357 -0.8873  0.3070  0.2798
  142DOPC  H18Y19595   1.604   2.447   3.306 -0.9987  0.0034  0.5317
  142DOPC  H18Z19596   1.550   2.614   3.295 -1.1097 -0.0594  0.4424
  143DOPC     N19597   5.603   0.588   1.332 -0.0825  0.7432  0.6427
  143DOPC   C1219598   5.538   0.505   1.435  0.1857 -0.4990 -0.3145
  143DOPC  H12A19599   5.613   0.438   1.473  0.3075 -0.2346 -0.0811
  143DOPC  H12B19600   5.465   0.440   1.389  0.8797 -0.2367 -1.8484
  143DOPC   C1319601   5.708   0.677   1.390 -0.1476  0.2203 -0.5125
  143DOPC  H13A19602   5.746   0.738   1.310 -0.5317  1.6456  0.3605
  143DOPC  H13B19603   5.671   0.726   1.479  0.5870  0.9058 -0.5738
  143DOPC  H13C19604   5.795   0.621   1.424 -0.7288 -0.0888  0.5184
  143DOPC   C1419605   5.507   0.684   1.268 -0.0315  0.3090  0.0408
  143DOPC  H14A19606   5.476   0.755   1.343 -0.0535  1.0256 -0.6369
  143DOPC  H14B19607   5.556   0.735   1.186  0.2622 -0.5532 -0.3370
  143DOPC  H14C19608   5.415   0.640   1.233 -0.8748  1.5075  0.7019
  143DOPC   C1519609   5.657   0.494   1.233  0.2130  0.8847  0.7049
  143DOPC  H15A19610   5.585   0.426   1.191  2.1246 -0.9329  0.1854
  143DOPC  H15B19611   5.734   0.430   1.274 -0.1545 -0.6471 -0.8392
  143DOPC  H15C19612   5.699   0.540   1.145 -2.0630  0.7945 -0.5022
  143DOPC   C1119613   5.488   0.582   1.555  0.4716 -0.5472 -0.0544
  143DOPC  H11A19614   5.466   0.502   1.629 -0.9634 -1.3047 -1.2324
  143DOPC  H11B19615   5.561   0.650   1.603 -1.0968  1.0150  0.2242
  143DOPC     P19616   5.239   0.588   1.481  0.2127  0.3279  0.0385
  143DOPC   O1319617   5.242   0.439   1.471 -0.3206 -0.3256  0.7376
  143DOPC   O1419618   5.186   0.661   1.363  0.2313  0.5801  1.0705
  143DOPC   O1219619   5.371   0.664   1.526 -0.2986  0.2048 -0.2302
  143DOPC   O1119620   5.149   0.625   1.598 -0.3403 -0.0710 -0.4685
  143DOPC    C119621   5.139   0.753   1.657  0.6901 -0.3210 -0.7490
  143DOPC    HA19622   5.030   0.777   1.651  0.3931 -1.6106 -0.9321
  143DOPC    HB19623   5.198   0.832   1.608 -1.5137  1.8080 -0.1641
  143DOPC    C219624   5.177   0.730   1.804 -0.1882  0.2286 -0.3220
  143DOPC    HS19625   5.271   0.671   1.802 -0.2314 -0.0144  1.8295
  143DOPC   O2119626   5.064   0.664   1.873 -0.5416  0.2902  0.3903
  143DOPC   C2119627   5.093   0.545   1.929  0.6039 -0.0361  0.1842
  143DOPC   O2219628   5.205   0.485   1.923  0.2500 -0.5987  0.3918
  143DOPC   C2219629   4.978   0.499   2.022 -0.5463  0.0546 -0.0414
  143DOPC   H2R19630   4.907   0.438   1.963  0.4222 -2.0232  0.8286
  143DOPC   H2S19631   4.934   0.592   2.061  1.4983  1.3695 -0.7010
  143DOPC    C319632   5.200   0.865   1.871 -0.1681  0.0043  0.0314
  143DOPC    HX19633   5.096   0.903   1.863 -0.3165 -0.5147 -0.5979
  143DOPC    HY19634   5.259   0.933   1.806  0.2125  1.0810  1.4361
  143DOPC   O3119635   5.265   0.870   2.000  0.3283  0.3725 -0.4267
  143DOPC   C3119636   5.189   0.908   2.103 -0.3883  0.3311  0.2359
  143DOPC   O3219637   5.071   0.935   2.092 -0.2638 -0.5209  0.3515
  143DOPC   C3219638   5.271   0.908   2.228  0.2050  0.6393  0.0625
  143DOPC   H2X19639   5.353   0.836   2.206 -1.6487 -1.5194 -0.0459
  143DOPC   H2Y19640   5.305   1.013   2.245  0.1918  0.6057  0.3020
  143DOPC   C2319641   5.014   0.400   2.140 -0.0244  0.2969  0.1081
  143DOPC   H3R19642   5.060   0.307   2.100 -1.9130 -0.8802  0.5213
  143DOPC   H3S19643   4.920   0.364   2.188  1.1539 -0.1124  2.2144
  143DOPC   C2419644   5.098   0.482   2.246 -0.1756 -0.4502  0.3510
  143DOPC   H4R19645   5.030   0.564   2.278 -2.1183 -1.2980 -1.4254
  143DOPC   H4S19646   5.186   0.529   2.196 -0.1067  1.2954  1.9894
  143DOPC   C2519647   5.129   0.402   2.376  0.4868 -0.5354 -0.3000
  143DOPC   H5R19648   5.036   0.346   2.401 -1.9234  1.6274 -3.5866
  143DOPC   H5S19649   5.164   0.473   2.454 -1.6090 -0.0755  0.2908
  143DOPC   C2619650   5.245   0.307   2.346 -0.0920 -0.1613  0.0456
  143DOPC   H6R19651   5.323   0.362   2.289 -0.7749  0.0482 -0.6982
  143DOPC   H6S19652   5.207   0.231   2.274  0.7345 -0.5224 -0.0210
  143DOPC   C2719653   5.315   0.233   2.467  0.6317 -0.0369  0.8320
  143DOPC   H7R19654   5.400   0.179   2.419  0.3540 -0.3178  0.6517
  143DOPC   H7S19655   5.233   0.170   2.507 -0.9579  2.4128  1.6211
  143DOPC   C2819656   5.367   0.320   2.584 -0.3728  0.3134  0.3731
  143DOPC   H8R19657   5.281   0.368   2.635  0.0966 -0.4961  2.0356
  143DOPC   H8S19658   5.421   0.408   2.542  0.2066  0.0443  0.5420
  143DOPC   C2919659   5.451   0.258   2.690  0.1143 -0.0392  0.3250
  143DOPC   H9R19660   5.539   0.212   2.642  0.8401  1.7621 -0.1717
  143DOPC  C21019661   5.423   0.244   2.817  0.6841  0.4845  0.0668
  143DOPC  H10R19662   5.498   0.192   2.879  0.8550  0.6435 -0.0090
  143DOPC  C21119663   5.288   0.277   2.882 -0.3413 -0.3392  0.4820
  143DOPC  H11R19664   5.300   0.210   2.970 -3.9287 -0.6667  0.8338
  143DOPC  H11S19665   5.202   0.238   2.825 -0.1247 -2.9469  1.7726
  143DOPC  C21219666   5.265   0.432   2.897  0.0266  0.0816 -1.1147
  143DOPC  H12R19667   5.292   0.484   2.803 -0.3015  1.5690 -0.4243
  143DOPC  H12S19668   5.337   0.474   2.970 -1.1561 -2.5749  1.8243
  143DOPC  C21319669   5.119   0.466   2.934 -0.6227 -0.5683  0.3312
  143DOPC  H13R19670   5.100   0.433   3.038 -1.3037  0.5001  0.5634
  143DOPC  H13S19671   5.047   0.403   2.878  0.4704  1.6879 -4.0626
  143DOPC  C21419672   5.086   0.613   2.917  0.2812  0.2050 -0.9307
  143DOPC  H14R19673   5.073   0.637   2.810 -1.3399 -0.3391 -0.8808
  143DOPC  H14S19674   5.175   0.664   2.960  0.7126 -2.4191  1.6242
  143DOPC  C21519675   4.957   0.668   2.993  0.0054 -0.2283  0.6179
  143DOPC  H15R19676   4.949   0.625   3.095 -1.9275  0.5759  0.8499
  143DOPC  H15S19677   4.862   0.642   2.942  0.4573 -2.1780  0.7004
  143DOPC  C21619678   4.955   0.825   2.998  0.0334  0.4223 -0.3408
  143DOPC  H16R19679   4.947   0.863   2.894 -0.7565 -0.2322 -0.5309
  143DOPC  H16S19680   5.048   0.866   3.043 -0.7867  1.4138  0.5173
  143DOPC  C21719681   4.847   0.885   3.092 -0.3480  0.1951  1.0050
  143DOPC  H17R19682   4.827   0.821   3.181 -0.7977 -0.8515  0.1636
  143DOPC  H17S19683   4.754   0.884   3.031  0.1572 -0.8455  0.2301
  143DOPC  C21819684   4.881   1.023   3.140 -0.1460 -0.6151  0.3705
  143DOPC  H18R19685   4.918   1.093   3.063  0.0700 -0.1386  0.8945
  143DOPC  H18S19686   4.963   1.011   3.214 -0.0367 -1.9893  0.0420
  143DOPC  H18T19687   4.792   1.076   3.182  0.5040  1.5293 -0.7887
  143DOPC   C3319688   5.194   0.854   2.352 -0.6222 -0.0837  0.0882
  143DOPC   H3X19689   5.147   0.757   2.327 -3.0594  0.8510  0.7693
  143DOPC   H3Y19690   5.109   0.923   2.372 -1.8715 -1.8311  1.0709
  143DOPC   C3419691   5.276   0.821   2.483  0.0028  0.2538 -0.1438
  143DOPC   H4X19692   5.216   0.762   2.556 -0.2122  1.0687  0.3567
  143DOPC   H4Y19693   5.287   0.920   2.533 -0.6106 -0.2481  1.0279
  143DOPC   C3519694   5.420   0.756   2.465 -0.2131 -0.2948 -0.5779
  143DOPC   H5X19695   5.466   0.797   2.373  1.9531 -0.9770  0.1289
  143DOPC   H5Y19696   5.388   0.652   2.441 -0.8418 -0.2781  0.1709
  143DOPC   C3619697   5.506   0.759   2.592 -0.0874 -0.0146 -0.6000
  143DOPC   H6X19698   5.605   0.722   2.559  0.8628 -1.2971  3.1497
  143DOPC   H6Y19699   5.524   0.863   2.626  0.9424 -0.3051 -0.2148
  143DOPC   C3719700   5.466   0.678   2.712 -0.2765 -0.6043 -0.4411
  143DOPC   H7X19701   5.370   0.709   2.758  0.3074  1.9734 -0.8266
  143DOPC   H7Y19702   5.447   0.574   2.678  0.2894 -0.3381 -1.5973
  143DOPC   C3819703   5.565   0.669   2.827 -0.1866 -0.8409  0.0592
  143DOPC   H8X19704   5.659   0.621   2.794  0.2503 -0.2109  0.3685
  143DOPC   H8Y19705   5.515   0.605   2.902 -2.1774 -1.2534 -1.5151
  143DOPC   C3919706   5.593   0.803   2.889  0.3009  0.6436 -0.5076
  143DOPC   H9X19707   5.538   0.883   2.837 -0.6993  0.3287  0.0509
  143DOPC  C31019708   5.685   0.830   2.982 -0.7803  0.1083  0.0915
  143DOPC  H10X19709   5.699   0.927   3.032  1.5896 -0.8052  1.3283
  143DOPC  C31119710   5.789   0.734   3.039  0.7245 -0.4377  0.8210
  143DOPC  H11X19711   5.883   0.791   3.048  1.1432 -0.8045 -0.9623
  143DOPC  H11Y19712   5.802   0.642   2.978  0.0596  0.5672 -0.9191
  143DOPC  C31219713   5.750   0.694   3.180  0.7654 -0.4123 -0.1402
  143DOPC  H12X19714   5.658   0.632   3.180  1.3364 -1.3021 -0.8739
  143DOPC  H12Y19715   5.710   0.783   3.231  0.0579  1.0211 -2.9854
  143DOPC  C31319716   5.866   0.626   3.245  0.1262 -0.8310  0.1006
  143DOPC  H13X19717   5.878   0.525   3.202 -1.6955 -0.8257 -0.4784
  143DOPC  H13Y19718   5.960   0.681   3.221  0.5065 -2.2306 -1.7910
  143DOPC  C31419719   5.850   0.609   3.399  0.2891  0.3669  0.8218
  143DOPC  H14X19720   5.865   0.710   3.445  2.0675  0.3532  0.3601
  143DOPC  H14Y19721   5.747   0.576   3.421 -0.4287 -0.5095 -3.1724
  143DOPC  C31519722   5.943   0.503   3.452  0.1703 -0.2257 -0.1803
  143DOPC  H15X19723   6.044   0.507   3.405  0.9512 -3.5949  0.9341
  143DOPC  H15Y19724   5.910   0.400   3.429  0.5658 -0.0700 -1.5602
  143DOPC  C31619725   5.943   0.515   3.608 -0.1991 -0.2498  0.3463
  143DOPC  H16X19726   5.942   0.625   3.624 -2.6709 -0.1976  0.3037
  143DOPC  H16Y19727   5.847   0.486   3.657 -0.4799  1.3470  0.8103
  143DOPC  C31719728   6.064   0.432   3.669  0.0257 -0.3245 -0.2541
  143DOPC  H17X19729   6.063   0.338   3.609 -0.7118 -0.3207 -0.2519
  143DOPC  H17Y19730   6.161   0.475   3.637 -0.6994 -0.3737 -2.6897
  143DOPC  C31819731   6.064   0.410   3.821 -0.8572  0.8276 -0.1532
  143DOPC  H18X19732   6.074   0.511   3.867  0.5228  0.3660  0.5926
  143DOPC  H18Y19733   5.979   0.352   3.864  0.9686 -1.5747  0.4245
  143DOPC  H18Z19734   6.152   0.345   3.836  0.1786  2.1636 -0.2899
  144DOPC     N19735   4.007   6.304   1.717 -0.1252 -0.5551 -0.3657
  144DOPC   C1219736   4.114   6.208   1.766 -0.1564  0.0581  0.2960
  144DOPC  H12A19737   4.195   6.255   1.819  1.0326 -1.0231 -0.4812
  144DOPC  H12B19738   4.166   6.154   1.688  0.0922 -0.7975  1.0340
  144DOPC   C1319739   4.064   6.420   1.642  0.7274  0.2528 -0.6633
  144DOPC  H13A19740   3.980   6.481   1.613 -0.2730 -1.1969 -0.8812
  144DOPC  H13B19741   4.133   6.485   1.695 -0.9811  2.6420 -1.1847
  144DOPC  H13C19742   4.104   6.391   1.546 -1.1519 -1.9937 -0.8585
  144DOPC   C1419743   3.926   6.374   1.831 -0.2922 -0.2122  0.0425
  144DOPC  H14A19744   3.919   6.299   1.908 -0.3708 -2.8492 -2.3673
  144DOPC  H14B19745   3.978   6.461   1.869  2.0806 -2.7031  2.9469
  144DOPC  H14C19746   3.829   6.397   1.790  0.4116  0.1435 -1.5135
  144DOPC   C1519747   3.919   6.229   1.620  0.0586 -0.5181  0.1259
  144DOPC  H15A19748   3.857   6.293   1.558  1.1251 -1.3060 -1.8549
  144DOPC  H15B19749   3.862   6.149   1.664 -2.1551  0.6264 -0.5300
  144DOPC  H15C19750   3.982   6.179   1.548  1.3984  1.5500 -0.2140
  144DOPC   C1119751   4.056   6.099   1.861 -0.4944 -0.1243  0.2523
  144DOPC  H11A19752   4.024   6.134   1.962 -0.9390 -2.5378  1.0111
  144DOPC  H11B19753   3.986   6.032   1.807 -0.6829  0.9003 -0.8167
  144DOPC     P19754   4.194   5.877   1.911  0.1957  0.3416  0.4154
  144DOPC   O1319755   4.335   5.850   1.890 -0.4824  0.3787 -0.0798
  144DOPC   O1419756   4.100   5.805   1.818 -0.1561  0.2023 -0.1211
  144DOPC   O1219757   4.177   6.033   1.896 -0.1084  0.1590  0.6254
  144DOPC   O1119758   4.146   5.856   2.060  0.3793 -0.1070 -0.1841
  144DOPC    C119759   4.163   5.958   2.162  0.3050  0.2108 -0.3639
  144DOPC    HA19760   4.065   5.975   2.213 -0.2690  0.1172 -1.4108
  144DOPC    HB19761   4.195   6.057   2.124 -3.0033  1.5797  0.0292
  144DOPC    C219762   4.269   5.909   2.264 -0.8483 -0.4994  0.0098
  144DOPC    HS19763   4.363   5.894   2.206 -1.5219 -0.6030 -1.0875
  144DOPC   O2119764   4.210   5.788   2.314 -0.0441  0.2102 -0.4123
  144DOPC   C2119765   4.266   5.675   2.272 -0.3098 -0.3517  0.1305
  144DOPC   O2219766   4.356   5.662   2.191 -0.3688 -0.0699 -0.2052
  144DOPC   C2219767   4.191   5.555   2.336 -0.3054 -0.3080 -0.7072
  144DOPC   H2R19768   4.106   5.535   2.266  1.1124 -1.1162 -2.2725
  144DOPC   H2S19769   4.138   5.588   2.427 -1.2679 -2.2520 -0.4914
  144DOPC    C319770   4.291   6.017   2.371 -0.0904  0.4047 -0.7641
  144DOPC    HX19771   4.191   6.039   2.413 -0.0639 -1.5779  0.4530
  144DOPC    HY19772   4.322   6.116   2.331 -1.4242  1.2420  0.1922
  144DOPC   O3119773   4.385   5.968   2.470  0.4021 -0.0877 -0.5646
  144DOPC   C3119774   4.516   5.992   2.462  0.0668 -0.3599  1.4887
  144DOPC   O3219775   4.570   6.064   2.380  0.2451 -0.4167  0.1482
  144DOPC   C3219776   4.577   5.907   2.570  0.0237 -0.3514 -1.3465
  144DOPC   H2X19777   4.574   5.963   2.666 -2.2647 -0.3317 -1.3749
  144DOPC   H2Y19778   4.527   5.814   2.603  1.3857 -0.0494  1.9891
  144DOPC   C2319779   4.274   5.430   2.363 -0.2418 -0.3773  0.2570
  144DOPC   H3R19780   4.326   5.423   2.461 -2.2233  1.0184  1.4684
  144DOPC   H3S19781   4.360   5.436   2.292  0.6069  0.6783  1.3454
  144DOPC   C2419782   4.210   5.292   2.340 -0.0841  0.5113  0.5144
  144DOPC   H4R19783   4.290   5.217   2.319 -1.6548 -0.8614 -0.8424
  144DOPC   H4S19784   4.144   5.287   2.250  1.2182  0.4329 -0.4645
  144DOPC   C2519785   4.129   5.252   2.462  0.2151  0.0397 -0.2137
  144DOPC   H5R19786   4.056   5.332   2.490  1.7719  1.4262  0.0846
  144DOPC   H5S19787   4.220   5.257   2.525  0.3241 -1.4525 -0.2192
  144DOPC   C2619788   4.075   5.110   2.451  0.4001  0.2220 -0.4382
  144DOPC   H6R19789   4.148   5.027   2.447 -1.1441 -1.2745  0.5368
  144DOPC   H6S19790   4.025   5.089   2.355 -0.8318 -1.7501  0.5634
  144DOPC   C2719791   3.968   5.077   2.561 -0.3895  0.0870 -0.7246
  144DOPC   H7R19792   3.927   4.975   2.545 -1.9139  0.3614  1.0521
  144DOPC   H7S19793   3.899   5.164   2.558 -1.2820 -0.4818  1.3926
  144DOPC   C2819794   4.041   5.075   2.697 -0.3745 -0.1001  0.1299
  144DOPC   H8R19795   4.062   5.182   2.716 -0.3454 -0.3160  1.3960
  144DOPC   H8S19796   4.133   5.016   2.676  0.1054  0.9296 -0.7626
  144DOPC   C2919797   3.964   5.019   2.815 -0.1241 -0.1366 -0.9552
  144DOPC   H9R19798   3.925   4.921   2.781  0.1460  0.8902 -4.6563
  144DOPC  C21019799   3.926   5.077   2.928  0.1113  0.0665  0.1421
  144DOPC  H10R19800   3.876   5.008   2.997 -1.1898  0.0462 -0.7876
  144DOPC  C21119801   3.949   5.218   2.969  0.4462  0.3270 -0.0204
  144DOPC  H11R19802   3.998   5.291   2.900 -1.2499  0.5201 -1.0859
  144DOPC  H11S19803   4.028   5.213   3.046 -0.2140  1.6351  0.7872
  144DOPC  C21219804   3.827   5.289   3.022  0.0743 -0.2201  0.3351
  144DOPC  H12R19805   3.785   5.226   3.103  2.9187 -3.4731 -0.4934
  144DOPC  H12S19806   3.757   5.307   2.938  1.4963  1.6175 -0.5371
  144DOPC  C21319807   3.866   5.423   3.091 -0.3624 -0.6579  0.6605
  144DOPC  H13R19808   3.941   5.476   3.029  0.5811 -1.8210  0.7678
  144DOPC  H13S19809   3.918   5.401   3.187  2.5094 -0.0514 -0.6443
  144DOPC  C21419810   3.742   5.522   3.113 -1.0678  0.1591  0.8310
  144DOPC  H14R19811   3.658   5.477   3.170 -2.2277  0.3218 -0.6660
  144DOPC  H14S19812   3.702   5.542   3.011  0.0997  1.8380  0.6666
  144DOPC  C21519813   3.776   5.653   3.170  0.5378  0.7822 -0.7753
  144DOPC  H15R19814   3.706   5.737   3.151  0.5888  1.3486  1.2828
  144DOPC  H15S19815   3.866   5.693   3.117  0.5312  0.8636 -0.7251
  144DOPC  C21619816   3.808   5.647   3.321  0.0280 -0.1722 -0.5856
  144DOPC  H16R19817   3.880   5.563   3.336  0.0906  0.0879  0.7732
  144DOPC  H16S19818   3.724   5.617   3.387  0.2173 -0.3742 -0.4321
  144DOPC  C21719819   3.876   5.773   3.381 -0.9290  0.2805  0.2966
  144DOPC  H17R19820   3.971   5.786   3.326 -1.0869  0.5138  0.0742
  144DOPC  H17S19821   3.903   5.745   3.485  1.6387  1.0677 -0.0960
  144DOPC  C21819822   3.791   5.902   3.377 -0.2617 -0.2943 -0.0285
  144DOPC  H18R19823   3.853   5.989   3.406 -1.7303  0.7600  0.0922
  144DOPC  H18S19824   3.706   5.880   3.446  0.6357  2.3248  2.0541
  144DOPC  H18T19825   3.751   5.932   3.278 -1.1411  3.6338  1.3291
  144DOPC   C3319826   4.727   5.874   2.552  0.2524 -0.2308 -0.3012
  144DOPC   H3X19827   4.768   5.968   2.511  0.7245 -0.5058 -0.4653
  144DOPC   H3Y19828   4.732   5.804   2.466 -1.0432 -1.4959  0.5804
  144DOPC   C3419829   4.809   5.809   2.665  0.5044 -0.5711 -0.5687
  144DOPC   H4X19830   4.917   5.831   2.654  0.8227 -1.3864  0.6348
  144DOPC   H4Y19831   4.798   5.698   2.665 -2.7618 -0.3510  0.1018
  144DOPC   C3519832   4.777   5.876   2.802  0.0390 -0.2343 -0.0329
  144DOPC   H5X19833   4.678   5.843   2.839  0.3070  2.5299  3.6784
  144DOPC   H5Y19834   4.779   5.987   2.796 -0.9704 -0.0267  2.3687
  144DOPC   C3619835   4.874   5.835   2.917  1.2069  0.0177 -0.3015
  144DOPC   H6X19836   4.829   5.735   2.936 -0.0222  0.6804  0.4369
  144DOPC   H6Y19837   4.977   5.836   2.877  1.5141 -0.1820  0.4553
  144DOPC   C3719838   4.871   5.920   3.039  0.3994  0.3074  0.3124
  144DOPC   H7X19839   4.884   6.028   3.016  0.6782  0.4425  1.0766
  144DOPC   H7Y19840   4.771   5.909   3.085  0.7390  1.6412  1.4321
  144DOPC   C3819841   4.964   5.870   3.148  0.1965 -0.2823 -0.1480
  144DOPC   H8X19842   5.065   5.869   3.104  0.7802 -0.8231  1.1380
  144DOPC   H8Y19843   4.921   5.772   3.179 -0.4918 -0.4007 -1.4229
  144DOPC   C3919844   4.953   5.958   3.271  0.2434  0.9993 -0.5051
  144DOPC   H9X19845   4.995   6.058   3.252 -0.5630  1.2167 -1.1938
  144DOPC  C31019846   4.879   5.930   3.383 -0.9312 -0.2144 -0.0851
  144DOPC  H10X19847   4.877   5.999   3.468 -1.1900 -0.4273  0.0845
  144DOPC  C31119848   4.789   5.806   3.406  0.1054  0.0524 -0.2098
  144DOPC  H11X19849   4.843   5.715   3.440  0.5385  0.2553 -0.3405
  144DOPC  H11Y19850   4.759   5.779   3.303  3.0299 -0.9969 -0.8966
  144DOPC  C31219851   4.668   5.847   3.498 -0.3746 -0.1483 -1.1647
  144DOPC  H12X19852   4.601   5.920   3.447 -2.4455  0.3866  2.0117
  144DOPC  H12Y19853   4.701   5.897   3.592  1.2302 -0.7215 -1.3859
  144DOPC  C31319854   4.586   5.721   3.536  0.4399 -0.2286  0.1578
  144DOPC  H13X19855   4.568   5.682   3.434 -2.3729 -0.6639  0.7530
  144DOPC  H13Y19856   4.642   5.649   3.600  1.2531 -0.7810 -1.1301
  144DOPC  C31419857   4.451   5.756   3.594 -0.1767 -0.0967  0.2235
  144DOPC  H14X19858   4.469   5.758   3.704 -0.2534 -1.4462  0.2747
  144DOPC  H14Y19859   4.411   5.852   3.556 -0.4889 -0.2839  0.0734
  144DOPC  C31519860   4.355   5.640   3.586  0.9819  1.3028  0.7379
  144DOPC  H15X19861   4.272   5.651   3.659  0.2870  1.4558 -0.0538
  144DOPC  H15Y19862   4.417   5.552   3.613 -1.3871 -0.6833  0.0213
  144DOPC  C31619863   4.301   5.610   3.446 -0.1646 -0.0158  0.1139
  144DOPC  H16X19864   4.231   5.694   3.423 -0.1835 -0.3896 -1.2954
  144DOPC  H16Y19865   4.375   5.628   3.365 -1.5138  3.2185 -0.5702
  144DOPC  C31719866   4.250   5.470   3.436 -0.0944  0.6112 -0.4191
  144DOPC  H17X19867   4.333   5.404   3.467 -1.5183 -1.5152 -0.9372
  144DOPC  H17Y19868   4.166   5.453   3.508  1.1621 -3.2819  0.3687
  144DOPC  C31819869   4.191   5.436   3.302 -0.4027 -0.2975  0.2084
  144DOPC  H18X19870   4.157   5.330   3.310 -1.7393  0.1374  0.4573
  144DOPC  H18Y19871   4.114   5.510   3.275 -0.3258  0.9067  3.0135
  144DOPC  H18Z19872   4.252   5.444   3.209 -0.5197  0.3506  0.1845
  145DOPC     N19873   2.294   6.067   1.481  0.1245  0.1787  0.2084
  145DOPC   C1219874   2.205   6.166   1.548  0.7155 -0.1151  0.3147
  145DOPC  H12A19875   2.155   6.115   1.630 -0.3169 -1.0489 -0.8464
  145DOPC  H12B19876   2.122   6.182   1.481 -0.4874 -2.4769  1.1142
  145DOPC   C1319877   2.366   5.979   1.582 -0.2878  0.4015  0.2228
  145DOPC  H13A19878   2.428   6.040   1.646 -0.7160  2.9912 -1.6776
  145DOPC  H13B19879   2.298   5.925   1.646 -1.9271  0.4284 -1.4133
  145DOPC  H13C19880   2.423   5.903   1.531 -0.9269 -0.3350  0.5857
  145DOPC   C1419881   2.394   6.131   1.390  0.3171  0.2877  0.6579
  145DOPC  H14A19882   2.478   6.172   1.444  1.3347 -0.0856 -0.5692
  145DOPC  H14B19883   2.440   6.061   1.321 -0.4233  0.0856  0.3594
  145DOPC  H14C19884   2.356   6.215   1.334  0.7540 -0.2716 -0.5057
  145DOPC   C1519885   2.201   5.975   1.402  0.1194 -0.0218  0.6357
  145DOPC  H15A19886   2.257   5.906   1.341  1.1255  2.2231 -1.1481
  145DOPC  H15B19887   2.146   6.030   1.328  1.0880 -0.7356 -0.6570
  145DOPC  H15C19888   2.133   5.919   1.464 -1.4994 -1.8528 -2.5593
  145DOPC   C1119889   2.269   6.292   1.613 -0.2774  0.5707 -0.0621
  145DOPC  H11A19890   2.305   6.349   1.525 -0.8784  1.8295  0.4893
  145DOPC  H11B19891   2.176   6.338   1.653 -1.0356 -1.9106  1.2669
  145DOPC     P19892   2.507   6.343   1.716  0.0869  0.4261 -0.0550
  145DOPC   O1319893   2.485   6.480   1.773  0.3254 -0.1979 -0.6025
  145DOPC   O1419894   2.581   6.325   1.588  0.6864 -0.4325 -0.0721
  145DOPC   O1219895   2.365   6.264   1.719 -0.0436 -0.2738 -0.3277
  145DOPC   O1119896   2.597   6.263   1.819  0.3447  0.4404  0.0385
  145DOPC    C119897   2.540   6.179   1.925 -0.6002 -0.9116  0.8348
  145DOPC    HA19898   2.628   6.127   1.969 -0.5844 -1.6408 -0.0423
  145DOPC    HB19899   2.474   6.096   1.893 -0.3473 -1.1193  0.8447
  145DOPC    C219900   2.472   6.264   2.032  0.5771 -0.2984 -0.1947
  145DOPC    HS19901   2.374   6.287   1.986 -0.2854  0.6970  1.9886
  145DOPC   O2119902   2.546   6.384   2.060  0.6650 -0.4723 -0.3616
  145DOPC   C2119903   2.476   6.473   2.124 -0.4034  0.0703 -0.2165
  145DOPC   O2219904   2.353   6.468   2.137  0.3839 -0.6515  0.1532
  145DOPC   C2219905   2.569   6.573   2.180  0.2762  0.0930 -0.0065
  145DOPC   H2R19906   2.556   6.658   2.110 -2.5739 -0.3397 -0.1189
  145DOPC   H2S19907   2.676   6.543   2.181  0.8281  1.8546  2.1803
  145DOPC    C319908   2.459   6.178   2.163  0.1872  1.0727 -0.2412
  145DOPC    HX19909   2.409   6.242   2.239  1.6874  1.7927  0.1801
  145DOPC    HY19910   2.562   6.165   2.202 -0.4631 -0.8531  0.9382
  145DOPC   O3119911   2.396   6.052   2.131  0.1019  0.3157 -0.1740
  145DOPC   C3119912   2.407   5.967   2.231 -1.4214  0.5220  0.3418
  145DOPC   O3219913   2.488   5.976   2.327  0.1109  0.4504  0.2116
  145DOPC   C3219914   2.305   5.866   2.219 -0.5528  0.4722  0.3326
  145DOPC   H2X19915   2.227   5.903   2.149  1.9302  1.7459 -1.9194
  145DOPC   H2Y19916   2.333   5.770   2.171 -4.3023 -0.4197 -0.4169
  145DOPC   C2319917   2.523   6.620   2.320 -0.4407 -0.2160 -0.6030
  145DOPC   H3R19918   2.422   6.665   2.310 -0.0982  0.8135  0.3208
  145DOPC   H3S19919   2.596   6.698   2.350 -0.8839  0.8513 -2.2240
  145DOPC   C2419920   2.524   6.512   2.433  0.8325  0.1707 -0.1807
  145DOPC   H4R19921   2.437   6.443   2.422  0.8020  0.0774  0.5554
  145DOPC   H4S19922   2.491   6.565   2.525  1.1824 -0.6803  0.4429
  145DOPC   C2519923   2.656   6.455   2.463  0.0085  0.3324 -0.1995
  145DOPC   H5R19924   2.725   6.521   2.521 -1.5754  0.4027  1.7086
  145DOPC   H5S19925   2.712   6.424   2.372 -1.5063 -4.7947  0.3477
  145DOPC   C2619926   2.647   6.320   2.545 -0.1369 -0.1276  0.3426
  145DOPC   H6R19927   2.747   6.273   2.545  0.7994  1.6157 -2.5582
  145DOPC   H6S19928   2.580   6.263   2.477 -1.0689 -1.3538  2.1980
  145DOPC   C2719929   2.612   6.349   2.685  0.1939 -1.1165 -0.6899
  145DOPC   H7R19930   2.537   6.431   2.682  0.8254 -0.5679 -2.4901
  145DOPC   H7S19931   2.700   6.375   2.747  0.3343  0.1003 -1.3753
  145DOPC   C2819932   2.522   6.239   2.748 -0.4196  0.0134 -0.3867
  145DOPC   H8R19933   2.444   6.215   2.673  0.8869 -1.0790 -1.4539
  145DOPC   H8S19934   2.468   6.278   2.837 -0.9159  1.7658 -1.4231
  145DOPC   C2919935   2.600   6.121   2.804 -0.5901  0.4289  0.7725
  145DOPC   H9R19936   2.681   6.141   2.876  2.1994 -1.7433 -1.5177
  145DOPC  C21019937   2.596   5.986   2.775  1.0608 -0.0896  0.5954
  145DOPC  H10R19938   2.654   5.918   2.839  0.2017 -0.1399  1.3409
  145DOPC  C21119939   2.505   5.912   2.679  0.1220 -0.0861  0.3136
  145DOPC  H11R19940   2.557   5.823   2.639  0.0018 -0.1749  0.3533
  145DOPC  H11S19941   2.487   5.985   2.597  1.5838 -1.0165 -0.8838
  145DOPC  C21219942   2.379   5.864   2.752 -0.1875  0.5816  0.5100
  145DOPC  H12R19943   2.323   5.819   2.667 -0.2588 -0.2435  0.9852
  145DOPC  H12S19944   2.315   5.942   2.798  0.1526  1.2784 -0.1767
  145DOPC  C21319945   2.398   5.759   2.861  0.0196  0.0498  0.3934
  145DOPC  H13R19946   2.444   5.815   2.945  1.7232  0.2525 -0.6205
  145DOPC  H13S19947   2.466   5.682   2.819 -1.9352 -0.9756 -1.0459
  145DOPC  C21419948   2.263   5.703   2.907 -1.3572  0.0212 -0.7339
  145DOPC  H14R19949   2.195   5.667   2.827 -3.1462  1.8294 -0.0984
  145DOPC  H14S19950   2.201   5.782   2.953 -1.3347  0.3044 -1.1919
  145DOPC  C21519951   2.280   5.591   3.020 -0.1085  0.4231 -0.1677
  145DOPC  H15R19952   2.345   5.637   3.098 -1.6913  0.4186  1.2070
  145DOPC  H15S19953   2.310   5.497   2.969 -1.0639  0.7738 -1.4163
  145DOPC  C21619954   2.152   5.576   3.105 -0.1639 -0.0336 -0.1775
  145DOPC  H16R19955   2.075   5.545   3.032  0.0917 -2.3790  0.4330
  145DOPC  H16S19956   2.125   5.677   3.142  0.7645  0.3562 -0.5409
  145DOPC  C21719957   2.160   5.492   3.228 -0.2084  0.2707  0.2514
  145DOPC  H17R19958   2.254   5.511   3.285 -1.3594  2.9651  1.4287
  145DOPC  H17S19959   2.164   5.383   3.208 -1.4158  0.3129 -0.3162
  145DOPC  C21819960   2.046   5.526   3.321  0.1191 -0.1655 -0.0382
  145DOPC  H18R19961   1.958   5.502   3.258  0.5204 -1.3377 -0.1868
  145DOPC  H18S19962   2.051   5.631   3.356 -0.7137 -0.2803  0.4551
  145DOPC  H18T19963   2.047   5.464   3.413  2.6327  1.7158  1.3460
  145DOPC   C3319964   2.246   5.819   2.355 -0.0862 -0.5294  0.2787
  145DOPC   H3X19965   2.220   5.903   2.422  0.9490 -1.8545  2.4464
  145DOPC   H3Y19966   2.319   5.762   2.416  0.8177  1.0306  0.6878
  145DOPC   C3419967   2.119   5.736   2.333  0.6058 -0.0457 -0.5666
  145DOPC   H4X19968   2.143   5.640   2.284 -0.5903 -0.1612 -0.9699
  145DOPC   H4Y19969   2.052   5.794   2.265 -0.1906 -1.3000 -0.8723
  145DOPC   C3519970   2.038   5.719   2.464  0.3402 -0.1986 -0.2080
  145DOPC   H5X19971   1.991   5.816   2.489  1.0036  0.1079 -0.1103
  145DOPC   H5Y19972   2.106   5.699   2.550 -1.5432  1.1611  1.7123
  145DOPC   C3619973   1.925   5.610   2.457 -0.1547  0.5483  0.2007
  145DOPC   H6X19974   1.887   5.590   2.560  2.3858  0.4297  1.1742
  145DOPC   H6Y19975   1.847   5.649   2.387 -0.5371  0.5139  0.6020
  145DOPC   C3719976   1.978   5.477   2.398  0.0365 -0.3811  0.0138
  145DOPC   H7X19977   2.007   5.487   2.291 -0.4107 -0.2175 -0.0942
  145DOPC   H7Y19978   2.062   5.448   2.465  0.1337  2.1375  1.1053
  145DOPC   C3819979   1.876   5.369   2.419  0.8762  0.2086  0.6697
  145DOPC   H8X19980   1.863   5.361   2.529 -0.2946 -1.4414  0.4564
  145DOPC   H8Y19981   1.916   5.268   2.398  1.5556  0.7476 -0.7484
  145DOPC   C3919982   1.741   5.378   2.354  0.7153  0.0127  0.6817
  145DOPC   H9X19983   1.741   5.396   2.246 -2.8493 -0.7649  0.4182
  145DOPC  C31019984   1.619   5.374   2.409 -0.0491  0.0832  0.1015
  145DOPC  H10X19985   1.531   5.401   2.350  0.8309  2.5390 -0.1648
  145DOPC  C31119986   1.589   5.338   2.553 -0.4841 -0.7380  0.5579
  145DOPC  H11X19987   1.665   5.264   2.586 -0.0960 -0.8746 -0.5841
  145DOPC  H11Y19988   1.488   5.294   2.565 -1.0954  1.2137  3.2581
  145DOPC  C31219989   1.582   5.458   2.654  0.1169  0.5059  0.0221
  145DOPC  H12X19990   1.495   5.516   2.616 -0.5972 -0.3295  0.3396
  145DOPC  H12Y19991   1.678   5.513   2.645 -0.0588  1.2585  2.0555
  145DOPC  C31319992   1.564   5.397   2.799  0.2310 -0.5000 -0.4949
  145DOPC  H13X19993   1.518   5.472   2.868  1.6987 -0.8867  0.9687
  145DOPC  H13Y19994   1.488   5.316   2.804  0.9567 -1.1173  2.1458
  145DOPC  C31419995   1.707   5.359   2.857 -0.4412 -0.0713  0.8152
  145DOPC  H14X19996   1.745   5.270   2.803  0.7368  1.9492 -1.9029
  145DOPC  H14Y19997   1.780   5.438   2.832 -0.0624  0.0428  2.2081
  145DOPC  C31519998   1.698   5.333   3.012  0.3291 -0.6572 -0.1488
  145DOPC  H15X19999   1.632   5.247   3.038 -1.8177  1.8441  3.8977
  145DOPC  H15Y20000   1.656   5.426   3.058  1.2604  0.7069 -1.9374
  145DOPC  C31620001   1.835   5.307   3.069 -0.0362 -0.4459  0.3538
  145DOPC  H16X20002   1.897   5.235   3.012  1.6235 -0.0229  1.5392
  145DOPC  H16Y20003   1.898   5.398   3.072 -1.8246  0.8312  0.7466
  145DOPC  C31720004   1.829   5.261   3.213  0.4081 -0.0429  0.3505
  145DOPC  H17X20005   1.930   5.270   3.259  0.9876  2.6864 -1.2191
  145DOPC  H17Y20006   1.765   5.336   3.265  0.5567  2.2763 -2.5541
  145DOPC  C31820007   1.782   5.113   3.228  0.2428 -0.5052 -0.0623
  145DOPC  H18X20008   1.853   5.058   3.163  1.5654  2.1788 -1.0645
  145DOPC  H18Y20009   1.774   5.073   3.331 -1.5041 -1.9628 -0.7155
  145DOPC  H18Z20010   1.682   5.120   3.180  0.6248 -2.7450 -1.2979
  146DOPC     N20011   5.754   2.478   1.509 -0.3176 -0.6635 -0.1164
  146DOPC   C1220012   5.609   2.450   1.548  0.4809  0.6162 -0.0635
  146DOPC  H12A20013   5.602   2.342   1.551 -4.1190  0.6712 -1.5459
  146DOPC  H12B20014   5.544   2.471   1.465 -1.0690 -3.0525  0.0199
  146DOPC   C1320015   5.773   2.616   1.481  0.0026 -1.0546  0.6368
  146DOPC  H13A20016   5.737   2.671   1.568  0.6767  0.4501  0.0064
  146DOPC  H13B20017   5.870   2.652   1.449  0.2856 -0.6794  1.8522
  146DOPC  H13C20018   5.711   2.649   1.399 -0.4968  0.5642  1.6180
  146DOPC   C1420019   5.790   2.406   1.383 -0.5850  0.1869 -0.1225
  146DOPC  H14A20020   5.886   2.432   1.340 -0.6967  1.8940  0.5714
  146DOPC  H14B20021   5.786   2.300   1.405 -0.0041  0.5684  2.1289
  146DOPC  H14C20022   5.726   2.428   1.299  0.2819 -1.6418 -1.3241
  146DOPC   C1520023   5.847   2.435   1.619  0.0275  0.1800 -0.8793
  146DOPC  H15A20024   5.843   2.327   1.626  0.7550  0.1002 -1.5415
  146DOPC  H15B20025   5.822   2.473   1.717  1.9752 -2.5962  0.8570
  146DOPC  H15C20026   5.948   2.465   1.593  0.2945 -0.8023 -1.0216
  146DOPC   C1120027   5.546   2.519   1.667 -0.1234 -0.2293 -0.0930
  146DOPC  H11A20028   5.446   2.473   1.681  0.2211 -1.1519 -0.5806
  146DOPC  H11B20029   5.603   2.486   1.756  2.1572  0.0606 -1.3679
  146DOPC     P20030   5.422   2.721   1.562  0.0441 -0.1491  0.3348
  146DOPC   O1320031   5.386   2.623   1.461 -0.2410 -0.0013  0.0943
  146DOPC   O1420032   5.458   2.857   1.515  0.1993  0.2023 -0.1782
  146DOPC   O1220033   5.539   2.658   1.651  0.3223  0.0243  0.5686
  146DOPC   O1120034   5.304   2.731   1.666 -0.4189  0.0716 -0.0014
  146DOPC    C120035   5.294   2.827   1.770 -0.3912 -0.9632 -0.0481
  146DOPC    HA20036   5.187   2.855   1.778 -0.0847  0.3512 -0.3455
  146DOPC    HB20037   5.345   2.921   1.738 -1.5452  0.1015  1.0976
  146DOPC    C220038   5.356   2.782   1.905  0.9606  0.2373 -0.3263
  146DOPC    HS20039   5.466   2.798   1.898  1.2327 -1.0168  0.7775
  146DOPC   O2120040   5.331   2.640   1.928 -0.6079 -0.1343 -0.2971
  146DOPC   C2120041   5.424   2.582   2.010 -0.5752 -0.6919 -0.4354
  146DOPC   O2220042   5.513   2.640   2.072 -0.2383  0.4367  0.1438
  146DOPC   C2220043   5.397   2.429   2.018 -0.1114 -0.4616  0.5495
  146DOPC   H2R20044   5.441   2.389   1.925 -1.3166  0.6381 -0.5236
  146DOPC   H2S20045   5.287   2.412   2.027  0.0159 -1.1377  0.9385
  146DOPC    C320046   5.299   2.873   2.014 -0.0039 -0.2995 -0.2695
  146DOPC    HX20047   5.196   2.837   2.036  0.4410 -0.7225  1.2672
  146DOPC    HY20048   5.295   2.969   1.959 -0.0629 -0.5987 -0.7928
  146DOPC   O3120049   5.369   2.863   2.141 -0.1810 -0.2480  0.3877
  146DOPC   C3120050   5.477   2.929   2.147  0.3833 -0.3305  0.4253
  146DOPC   O3220051   5.530   2.979   2.050 -0.1756  0.0959  0.2671
  146DOPC   C3220052   5.536   2.920   2.292  0.1423  0.2014 -0.1862
  146DOPC   H2X20053   5.489   2.995   2.358  0.3989 -0.2114  0.4744
  146DOPC   H2Y20054   5.494   2.824   2.328  0.5724 -0.4180 -1.2646
  146DOPC   C2320055   5.469   2.369   2.140  0.1643 -0.4877 -0.4837
  146DOPC   H3R20056   5.570   2.411   2.158 -0.8111  0.7920  2.8814
  146DOPC   H3S20057   5.475   2.260   2.119  0.6156 -0.6090  0.2504
  146DOPC   C2420058   5.400   2.394   2.278 -0.4409  1.0410 -0.3045
  146DOPC   H4R20059   5.291   2.388   2.258 -0.3982  0.3921 -0.3714
  146DOPC   H4S20060   5.422   2.498   2.311  1.6894  0.7000 -0.4979
  146DOPC   C2520061   5.455   2.297   2.378  0.2122  0.1040 -0.6692
  146DOPC   H5R20062   5.566   2.304   2.387  0.0902  2.7973 -0.4958
  146DOPC   H5S20063   5.408   2.201   2.345  1.2571 -0.8962  0.6282
  146DOPC   C2620064   5.399   2.322   2.520 -0.1064 -0.5218 -0.0754
  146DOPC   H6R20065   5.288   2.314   2.511 -0.1668  1.1163 -1.1289
  146DOPC   H6S20066   5.425   2.426   2.548  0.1980 -0.4123 -0.7438
  146DOPC   C2720067   5.444   2.225   2.625 -0.5043 -0.1273  1.0050
  146DOPC   H7R20068   5.552   2.247   2.637 -0.0240 -0.7078 -1.7607
  146DOPC   H7S20069   5.433   2.119   2.597 -1.2888  0.3857 -0.7775
  146DOPC   C2820070   5.391   2.247   2.768  0.6736  0.5817 -0.2079
  146DOPC   H8R20071   5.377   2.357   2.773 -0.2661  0.5071 -0.8946
  146DOPC   H8S20072   5.467   2.224   2.845 -0.1716  0.8100  0.7269
  146DOPC   C2920073   5.260   2.169   2.787 -0.2550 -0.0107  0.0452
  146DOPC   H9R20074   5.264   2.060   2.778  0.4510  0.1252 -1.7077
  146DOPC  C21020075   5.133   2.211   2.800 -1.1569  0.5777 -0.3286
  146DOPC  H10R20076   5.054   2.134   2.809  0.2465 -0.7548  1.1718
  146DOPC  C21120077   5.083   2.349   2.816 -0.2610  0.3173  0.4719
  146DOPC  H11R20078   5.001   2.380   2.748  0.8499  2.6976  0.1345
  146DOPC  H11S20079   5.167   2.421   2.807  0.9214 -1.0229  0.4278
  146DOPC  C21220080   5.043   2.381   2.963  0.5044 -0.2422 -0.0057
  146DOPC  H12R20081   4.955   2.319   2.993  1.0525 -1.5256 -0.9197
  146DOPC  H12S20082   5.014   2.488   2.962  1.9782  0.1765 -1.4714
  146DOPC  C21320083   5.157   2.377   3.067  0.4835  0.3831 -1.2198
  146DOPC  H13R20084   5.250   2.430   3.037  1.6272  0.3110  1.8563
  146DOPC  H13S20085   5.195   2.273   3.078  1.7197  0.9253 -0.0296
  146DOPC  C21420086   5.115   2.431   3.204  0.1417  0.7970 -0.0332
  146DOPC  H14R20087   5.032   2.368   3.242 -0.4380  1.4798 -0.1738
  146DOPC  H14S20088   5.073   2.530   3.180  0.2740  0.8670  0.0182
  146DOPC  C21520089   5.232   2.430   3.300 -0.1211 -0.5444 -0.0086
  146DOPC  H15R20090   5.191   2.487   3.386 -0.0715 -0.3214 -0.1317
  146DOPC  H15S20091   5.316   2.475   3.244 -1.7338 -0.2307 -2.3152
  146DOPC  C21620092   5.280   2.291   3.353  0.1869 -0.1750 -0.0118
  146DOPC  H16R20093   5.303   2.230   3.264  0.7571 -0.4735  0.3346
  146DOPC  H16S20094   5.196   2.231   3.394 -1.0068  1.0682 -0.5553
  146DOPC  C21720095   5.398   2.282   3.444  0.7075 -0.2582  0.4162
  146DOPC  H17R20096   5.389   2.340   3.539 -2.2195 -0.1930  0.1933
  146DOPC  H17S20097   5.496   2.308   3.399  1.1126 -0.9846  0.8613
  146DOPC  C21820098   5.414   2.134   3.473  0.3284 -0.2186  0.2702
  146DOPC  H18R20099   5.412   2.075   3.378 -1.6035 -0.0247  0.1570
  146DOPC  H18S20100   5.326   2.092   3.526 -0.3697 -0.4673 -1.0170
  146DOPC  H18T20101   5.511   2.107   3.520  0.2690 -1.7243 -0.3910
  146DOPC   C3320102   5.690   2.929   2.303 -0.3937 -0.2930 -0.3130
  146DOPC   H3X20103   5.730   3.014   2.244 -2.2512  0.9023  0.0644
  146DOPC   H3Y20104   5.746   2.838   2.273  0.9812  0.4213  0.0110
  146DOPC   C3420105   5.725   2.946   2.452  0.2085 -0.2724  0.4309
  146DOPC   H4X20106   5.834   2.926   2.462  0.3109 -0.9054 -1.4685
  146DOPC   H4Y20107   5.669   2.864   2.501 -2.0333 -0.6742 -2.5164
  146DOPC   C3520108   5.699   3.085   2.511 -1.0097  0.9293  0.1549
  146DOPC   H5X20109   5.598   3.116   2.477 -1.0676 -0.5228 -1.1108
  146DOPC   H5Y20110   5.772   3.144   2.451 -0.8818 -0.5752 -1.2240
  146DOPC   C3620111   5.697   3.085   2.665  0.3950 -0.1878 -0.7729
  146DOPC   H6X20112   5.668   3.187   2.697 -0.9447 -0.5412 -0.7814
  146DOPC   H6Y20113   5.623   3.014   2.708  0.0877  0.7565  0.2817
  146DOPC   C3720114   5.834   3.057   2.723  0.3987 -0.0349 -0.5985
  146DOPC   H7X20115   5.877   2.960   2.690 -0.0748  0.0521 -1.5004
  146DOPC   H7Y20116   5.897   3.140   2.683  1.4689  0.5412  2.0544
  146DOPC   C3820117   5.837   3.074   2.876  0.4390 -0.4378 -0.0595
  146DOPC   H8X20118   5.834   3.185   2.889  1.2627 -0.2009 -1.6372
  146DOPC   H8Y20119   5.941   3.050   2.907 -0.4544 -3.0148  1.1324
  146DOPC   C3920120   5.742   2.990   2.950  0.4688 -0.2884 -0.4862
  146DOPC   H9X20121   5.774   2.885   2.938 -0.3289 -0.3527 -2.5473
  146DOPC  C31020122   5.628   3.030   3.015 -0.2872 -0.4271 -0.2625
  146DOPC  H10X20123   5.557   2.965   3.069  1.1232 -1.0008  0.9872
  146DOPC  C31120124   5.610   3.180   3.042 -0.2533 -0.2387 -0.2200
  146DOPC  H11X20125   5.653   3.248   2.965  1.3880 -3.6007 -2.5351
  146DOPC  H11Y20126   5.663   3.215   3.133 -0.2077  1.0199 -0.7130
  146DOPC  C31220127   5.461   3.212   3.057 -0.1665  0.0563  0.4957
  146DOPC  H12X20128   5.405   3.176   2.968  2.1806 -1.1369 -0.6102
  146DOPC  H12Y20129   5.446   3.322   3.059 -0.1684  0.2548 -3.1704
  146DOPC  C31320130   5.388   3.157   3.180 -0.4372  0.0797 -0.5276
  146DOPC  H13X20131   5.278   3.167   3.170 -0.6322  0.4081  1.4765
  146DOPC  H13Y20132   5.407   3.049   3.195  0.4419  0.4944  2.0260
  146DOPC  C31420133   5.426   3.220   3.313 -0.7256 -0.4399  0.0330
  146DOPC  H14X20134   5.525   3.178   3.343 -0.0241 -1.1934 -2.9735
  146DOPC  H14Y20135   5.444   3.329   3.306  2.5834 -0.9802 -2.9420
  146DOPC  C31520136   5.340   3.179   3.429  0.1151  0.3128 -0.7226
  146DOPC  H15X20137   5.331   3.068   3.426  1.2638  0.2208 -2.3422
  146DOPC  H15Y20138   5.240   3.226   3.421  0.1174  0.0078 -3.3763
  146DOPC  C31620139   5.398   3.223   3.560  0.1121  0.0231  0.1627
  146DOPC  H16X20140   5.492   3.174   3.593  0.3349  0.7282  0.6077
  146DOPC  H16Y20141   5.419   3.329   3.534  0.6253 -0.1116  0.0014
  146DOPC  C31720142   5.297   3.232   3.670  0.5153  0.1975  0.1920
  146DOPC  H17X20143   5.336   3.298   3.751 -1.9654  1.4694  0.4376
  146DOPC  H17Y20144   5.210   3.289   3.631  0.8656 -0.8218 -2.2897
  146DOPC  C31820145   5.267   3.104   3.741  1.0789 -0.1393 -0.0258
  146DOPC  H18X20146   5.361   3.071   3.791  0.8485 -0.1721  0.3970
  146DOPC  H18Y20147   5.204   3.120   3.831  0.4337 -0.8770 -0.3384
  146DOPC  H18Z20148   5.225   3.023   3.678  1.7426 -0.5879  0.0998
  147DOPC     N20149   4.044   7.852   1.433 -0.1330 -0.5140  0.3024
  147DOPC   C1220150   4.044   8.004   1.451  0.4549  0.3775 -0.2950
  147DOPC  H12A20151   4.026   8.050   1.355  3.0575  1.0852 -0.5047
  147DOPC  H12B20152   4.138   8.044   1.486 -0.6329  2.0734  0.8193
  147DOPC   C1320153   3.900   7.813   1.399 -0.8602 -0.3228 -0.2287
  147DOPC  H13A20154   3.833   7.830   1.482 -0.6848 -0.1326 -0.1232
  147DOPC  H13B20155   3.872   7.875   1.315  0.1134 -1.8459 -1.7566
  147DOPC  H13C20156   3.888   7.709   1.373 -1.1967 -0.3359 -0.0328
  147DOPC   C1420157   4.083   7.787   1.556 -0.3744 -0.7637  0.1121
  147DOPC  H14A20158   4.156   7.844   1.611 -0.1458 -1.0135  0.0674
  147DOPC  H14B20159   3.996   7.776   1.618  0.1324 -1.7171  0.6646
  147DOPC  H14C20160   4.120   7.686   1.544 -0.7664 -1.3122  2.9865
  147DOPC   C1520161   4.138   7.804   1.326  0.1573 -0.7768 -0.4627
  147DOPC  H15A20162   4.104   7.830   1.227 -0.9797  1.3439  0.4169
  147DOPC  H15B20163   4.153   7.697   1.333  2.6047 -0.4103  0.7417
  147DOPC  H15C20164   4.237   7.843   1.345  0.5533 -2.2189  0.6629
  147DOPC   C1120165   3.957   8.063   1.562  0.2754  0.0321  0.1926
  147DOPC  H11A20166   3.975   8.027   1.666  0.4405  0.0702  0.1776
  147DOPC  H11B20167   3.990   8.169   1.564  1.3013 -0.2648 -0.3103
  147DOPC     P20168   3.748   8.141   1.434  0.1921 -0.2677  0.4077
  147DOPC   O1320169   3.609   8.096   1.411  0.3537 -0.1779  0.7807
  147DOPC   O1420170   3.836   8.162   1.318 -0.1279 -0.1140 -0.1659
  147DOPC   O1220171   3.818   8.047   1.535  0.1157  0.2043 -0.3092
  147DOPC   O1120172   3.740   8.278   1.520  0.7890 -0.2811  0.3293
  147DOPC    C120173   3.623   8.301   1.598  0.2637  0.2471 -0.2278
  147DOPC    HA20174   3.542   8.225   1.602  1.8937 -1.6416 -1.2440
  147DOPC    HB20175   3.571   8.393   1.563  2.2762  1.8089  0.6621
  147DOPC    C220176   3.652   8.315   1.750  0.0841  0.0530  0.0881
  147DOPC    HS20177   3.561   8.355   1.800  0.9115 -2.5405  4.1839
  147DOPC   O2120178   3.762   8.408   1.779 -0.3075 -0.1034 -0.3740
  147DOPC   C2120179   3.745   8.531   1.739  0.9939 -0.2814 -0.8011
  147DOPC   O2220180   3.638   0.049   1.708  0.2427  0.9555  0.4855
  147DOPC   C2220181   3.877   0.070   1.745  0.1819  0.2244  0.1886
  147DOPC   H2R20182   3.916   0.087   1.642  2.1297  1.4474  1.0753
  147DOPC   H2S20183   3.946   8.531   1.791  0.4322 -0.4607 -1.2469
  147DOPC    C320184   3.685   8.181   1.810  0.3117 -0.0182 -0.7006
  147DOPC    HX20185   3.773   8.141   1.756  0.8449 -1.3720  1.0603
  147DOPC    HY20186   3.605   8.106   1.793  2.6876 -2.4703 -1.7275
  147DOPC   O3120187   3.705   8.212   1.950  0.1474 -0.2539  0.6579
  147DOPC   C3120188   3.749   8.102   2.011 -0.6055  0.2508 -0.4436
  147DOPC   O3220189   3.753   7.996   1.951  0.0232  0.5911 -0.2810
  147DOPC   C3220190   3.773   8.124   2.158 -0.3142 -0.9667 -0.0349
  147DOPC   H2X20191   3.829   8.219   2.171  0.7203 -1.4545 -0.7508
  147DOPC   H2Y20192   3.679   8.159   2.203 -0.9344  0.5227 -2.3078
  147DOPC   C2320193   3.866   0.199   1.830  1.0272  0.5669 -0.3688
  147DOPC   H3R20194   3.849   0.165   1.934 -1.4633 -0.4098 -1.0100
  147DOPC   H3S20195   3.774   0.254   1.802  0.9341 -0.2512 -1.7645
  147DOPC   C2420196   3.974   0.296   1.805  0.1930 -0.1982  0.2460
  147DOPC   H4R20197   3.996   0.302   1.697  0.5140  0.0513  0.3225
  147DOPC   H4S20198   4.062   0.252   1.858  0.2413  0.0877  0.4030
  147DOPC   C2520199   3.940   0.441   1.849  0.4452 -0.0696  0.0686
  147DOPC   H5R20200   3.855   0.481   1.790  0.1357 -1.1835 -0.2622
  147DOPC   H5S20201   4.022   0.514   1.831 -0.3827  1.0881  0.8201
  147DOPC   C2620202   3.908   0.450   1.999  0.2985 -0.6394 -0.4195
  147DOPC   H6R20203   3.815   0.391   2.017 -0.1747 -0.1534 -1.2126
  147DOPC   H6S20204   3.892   0.555   2.033  0.8112 -1.1896  1.6631
  147DOPC   C2720205   4.024   0.396   2.090  0.0063 -0.0874 -0.4956
  147DOPC   H7R20206   4.124   0.439   2.068  0.4809 -0.8874  0.0579
  147DOPC   H7S20207   4.023   0.286   2.074  1.3459 -0.1160 -0.4923
  147DOPC   C2820208   3.999   0.425   2.237 -0.3072  0.0855  0.5075
  147DOPC   H8R20209   4.037   0.347   2.306 -0.3099 -0.3246  0.0552
  147DOPC   H8S20210   3.889   0.440   2.248 -0.2062  1.2731  0.0316
  147DOPC   C2920211   4.046   0.563   2.268  0.1069 -0.6732 -0.5016
  147DOPC   H9R20212   4.057   0.633   2.183 -0.5414  1.1938  0.8679
  147DOPC  C21020213   4.104   0.609   2.381 -0.6422 -0.3243  0.0971
  147DOPC  H10R20214   4.146   0.710   2.365  1.6921 -1.2722 -0.2307
  147DOPC  C21120215   4.152   0.527   2.501 -0.0255 -0.4495 -0.1372
  147DOPC  H11R20216   4.256   0.558   2.524  0.1547 -0.8419 -0.4087
  147DOPC  H11S20217   4.161   0.421   2.468 -2.7181 -0.4382 -1.1548
  147DOPC  C21220218   4.064   0.513   2.627  0.4250 -0.1459 -0.2540
  147DOPC  H12R20219   4.102   0.426   2.685  1.5026  2.1610  2.8332
  147DOPC  H12S20220   3.963   0.490   2.587  0.2005  1.7130 -0.8410
  147DOPC  C21320221   4.066   0.637   2.714 -0.4232 -1.0663  0.1820
  147DOPC  H13R20222   4.013   0.720   2.662  0.7873  0.3272  1.0710
  147DOPC  H13S20223   4.170   0.673   2.730 -0.5217 -1.1415  1.0804
  147DOPC  C21420224   3.998   0.623   2.854 -0.0819  0.1699  0.3973
  147DOPC  H14R20225   4.002   0.719   2.909 -0.9292 -0.2278  1.1850
  147DOPC  H14S20226   4.056   0.551   2.916 -1.8294 -1.2002  0.5513
  147DOPC  C21520227   3.853   0.578   2.858 -0.2793 -0.6150  0.1756
  147DOPC  H15R20228   3.864   0.468   2.844  2.9544 -0.5918  1.6582
  147DOPC  H15S20229   3.795   0.629   2.778  1.1355  0.0357 -0.4787
  147DOPC  C21620230   3.785   0.598   2.986  0.4433  0.2218 -0.2201
  147DOPC  H16R20231   3.765   0.704   3.013 -1.1882 -0.3835  1.1830
  147DOPC  H16S20232   3.838   0.555   3.074  0.3374 -1.1326 -0.7875
  147DOPC  C21720233   3.657   0.520   2.991  0.9602 -0.0586 -0.1775
  147DOPC  H17R20234   3.685   0.413   2.982 -0.5869 -0.5349  0.4127
  147DOPC  H17S20235   3.587   0.559   2.914  0.8778 -0.0849 -0.1159
  147DOPC  C21820236   3.578   0.551   3.119  0.3419  0.3730 -0.2451
  147DOPC  H18R20237   3.565   0.661   3.128  1.6892  0.4125  2.3591
  147DOPC  H18S20238   3.625   0.516   3.214 -0.1671  0.4019  0.0201
  147DOPC  H18T20239   3.476   0.510   3.111  0.1493  0.5639  1.0112
  147DOPC   C3320240   3.853   8.019   2.235  0.6324 -0.5786 -0.6965
  147DOPC   H3X20241   3.896   8.079   2.318 -1.0464  0.9798 -0.8832
  147DOPC   H3Y20242   3.942   7.985   2.178  1.2072  1.0455 -0.8150
  147DOPC   C3420243   3.762   7.904   2.280  0.0470 -0.3435 -0.1743
  147DOPC   H4X20244   3.717   7.845   2.198  1.1342 -0.3220 -0.8036
  147DOPC   H4Y20245   3.680   7.947   2.341 -1.1938 -2.8321  0.0348
  147DOPC   C3520246   3.846   7.805   2.356 -0.0939  0.1283 -0.6930
  147DOPC   H5X20247   3.894   7.845   2.448  1.8725  0.3946 -1.7889
  147DOPC   H5Y20248   3.927   7.764   2.292  0.0377 -1.1516  0.2618
  147DOPC   C3620249   3.746   7.692   2.400  0.3714 -0.3341  0.2762
  147DOPC   H6X20250   3.665   7.737   2.460  0.9651  0.8594  0.2103
  147DOPC   H6Y20251   3.699   7.652   2.307 -0.1357  4.1000 -1.6334
  147DOPC   C3720252   3.815   7.589   2.490 -0.8392 -0.2370 -0.1312
  147DOPC   H7X20253   3.878   7.523   2.426 -0.9216  0.9429 -1.4859
  147DOPC   H7Y20254   3.889   7.630   2.562  0.3830  1.9143 -2.4331
  147DOPC   C3820255   3.708   7.499   2.558 -0.6561  0.0120 -0.2250
  147DOPC   H8X20256   3.767   7.419   2.607  0.8552  0.3165 -1.4626
  147DOPC   H8Y20257   3.645   7.457   2.478  1.8272  1.4634 -3.1459
  147DOPC   C3920258   3.637   7.573   2.667 -0.4018 -0.7045 -0.1701
  147DOPC   H9X20259   3.701   7.647   2.717  0.2979  1.7053 -4.1291
  147DOPC  C31020260   3.501   7.576   2.683 -0.1540  0.1994 -0.4539
  147DOPC  H10X20261   3.463   7.645   2.759  0.9377  1.4995 -1.0558
  147DOPC  C31120262   3.389   7.497   2.614 -0.0952 -0.1653 -0.3008
  147DOPC  H11X20263   3.325   7.465   2.699  0.7157 -1.1651 -0.0427
  147DOPC  H11Y20264   3.424   7.398   2.577 -2.5443 -0.4861 -2.0505
  147DOPC  C31220265   3.319   7.564   2.492 -0.1727 -0.9310  0.2442
  147DOPC  H12X20266   3.399   7.580   2.416  0.8663  1.8689  1.7878
  147DOPC  H12Y20267   3.285   7.665   2.521  0.2907 -0.9018  0.6999
  147DOPC  C31320268   3.198   7.496   2.449  0.3913 -0.4324  0.4102
  147DOPC  H13X20269   3.111   7.528   2.511  0.0677 -1.5424  0.5483
  147DOPC  H13Y20270   3.170   7.521   2.345  3.2297  0.1662 -0.2893
  147DOPC  C31420271   3.207   7.345   2.457 -0.0722 -0.4050  0.3094
  147DOPC  H14X20272   3.306   7.308   2.422  0.2307  1.6186 -1.1736
  147DOPC  H14Y20273   3.196   7.297   2.556 -1.4447 -1.7097 -0.4200
  147DOPC  C31520274   3.104   7.274   2.372  0.5120  0.3728  0.3332
  147DOPC  H15X20275   3.085   7.309   2.268 -1.1997 -3.1985 -0.6773
  147DOPC  H15Y20276   3.006   7.276   2.424  0.3159 -1.1474  0.0596
  147DOPC  C31620277   3.138   7.119   2.349  0.4940 -0.2514  0.6588
  147DOPC  H16X20278   3.228   7.099   2.287  2.1253  1.8303  2.2337
  147DOPC  H16Y20279   3.154   7.072   2.448 -0.2559 -1.3414  0.2857
  147DOPC  C31720280   3.019   7.038   2.286  0.1150 -0.2566  0.2175
  147DOPC  H17X20281   2.969   7.106   2.214 -0.2612 -0.8060 -0.0548
  147DOPC  H17Y20282   3.055   6.960   2.215  2.0024  2.1948 -1.6938
  147DOPC  C31820283   2.914   6.992   2.387  0.4318 -0.3084 -0.9830
  147DOPC  H18X20284   2.955   6.980   2.489  0.3412  3.5966 -0.3268
  147DOPC  H18Y20285   2.819   7.050   2.388 -1.0819 -2.6042 -1.9027
  147DOPC  H18Z20286   2.880   6.888   2.367 -0.1125 -0.1802 -0.7362
  148DOPC     N20287   7.869   6.247   1.595  0.1174 -0.7246  0.3179
  148DOPC   C1220288   7.864   6.239   1.753  0.0112 -0.8173  0.5142
  148DOPC  H12A20289   7.784   6.306   1.781 -0.2279 -0.9669  0.1926
  148DOPC  H12B20290   7.958   6.279   1.788 -0.4963  1.7066 -0.7476
  148DOPC   C1320291   7.904   6.388   1.558 -0.4230 -0.9533 -0.4849
  148DOPC  H13A20292   7.825   6.453   1.591 -1.4532 -1.8104 -1.2001
  148DOPC  H13B20293   7.996   6.422   1.604 -1.7322  1.2087  0.6877
  148DOPC  H13C20294   7.905   6.400   1.451 -0.4237 -2.3471 -0.6555
  148DOPC   C1420295   7.733   6.220   1.538  0.4961  0.7482  0.3496
  148DOPC  H14A20296   7.708   6.118   1.562 -1.1602  1.2407  0.8725
  148DOPC  H14B20297   7.649   6.282   1.566  0.7384  1.7939 -1.1011
  148DOPC  H14C20298   7.738   6.228   1.431 -0.8587 -0.4899  0.1607
  148DOPC   C1520299   7.971   6.156   1.531  0.5391 -0.5749 -0.4316
  148DOPC  H15A20300   7.980   6.162   1.424  0.2778 -2.6503 -0.6124
  148DOPC  H15B20301   7.926   6.058   1.542  0.6564 -0.9010 -2.4579
  148DOPC  H15C20302   8.060   6.154   1.592 -0.1764  1.7710  0.7993
  148DOPC   C1120303   7.842   6.100   1.812  0.2787  0.6193  0.2398
  148DOPC  H11A20304   7.796   6.095   1.913 -0.1531 -1.6317 -0.0136
  148DOPC  H11B20305   7.772   6.033   1.757 -1.7159  1.6076  1.4525
  148DOPC     P20306   8.083   6.059   1.908  0.2432 -0.1792 -0.2733
  148DOPC   O1320307   8.109   6.208   1.900 -0.1083  0.4565 -0.1635
  148DOPC   O1420308   8.193   5.964   1.878  0.5281 -0.2403 -0.1562
  148DOPC   O1220309   7.965   6.028   1.811 -0.1729 -0.2496 -0.0245
  148DOPC   O1120310   8.027   6.028   2.053 -0.9594  0.4445 -0.0027
  148DOPC    C120311   7.958   6.129   2.128 -0.1831  0.5183 -0.2161
  148DOPC    HA20312   7.894   6.071   2.196  0.9224 -1.7062 -0.9878
  148DOPC    HB20313   7.889   6.199   2.076 -0.8195 -0.8743 -1.2985
  148DOPC    C220314   8.058   6.198   2.232  0.5690  0.0411  0.3736
  148DOPC    HS20315   8.130   6.256   2.171  0.2090  1.0342  0.8782
  148DOPC   O2120316   8.130   6.092   2.314 -0.3085  0.2858  0.0037
  148DOPC   C2120317   8.259   6.119   2.329  0.5458 -0.0374 -0.2364
  148DOPC   O2220318   8.325   6.209   2.274 -0.5683  0.1728 -0.2096
  148DOPC   C2220319   8.319   6.014   2.409  0.1246 -0.6235  0.6391
  148DOPC   H2R20320   8.354   5.936   2.339 -2.8691 -1.1791 -0.3969
  148DOPC   H2S20321   8.256   5.965   2.486  1.7029  0.3595  2.6572
  148DOPC    C320322   7.989   6.303   2.322  0.8031  0.0328 -0.0392
  148DOPC    HX20323   7.934   6.254   2.406  1.0391 -0.2389 -0.0420
  148DOPC    HY20324   7.915   6.353   2.256  1.9229 -0.4773 -1.7419
  148DOPC   O3120325   8.084   6.405   2.370  0.2048  0.3090 -0.1863
  148DOPC   C3120326   8.075   6.437   2.504 -0.0626 -0.0700  0.2141
  148DOPC   O3220327   7.988   6.403   2.577  0.5716  0.0266  0.5391
  148DOPC   C3220328   8.190   6.520   2.548  0.2409 -0.9322 -0.0931
  148DOPC   H2X20329   8.141   6.612   2.589 -0.8715 -0.7759 -1.6776
  148DOPC   H2Y20330   8.241   6.477   2.637 -0.1664 -0.0676  0.5762
  148DOPC   C2320331   8.448   6.059   2.479 -0.7054  0.0690  0.9013
  148DOPC   H3R20332   8.439   6.152   2.538  0.5618  2.1719 -1.9432
  148DOPC   H3S20333   8.516   6.087   2.395 -0.4591  1.0758  1.4118
  148DOPC   C2420334   8.519   5.955   2.568 -0.2473 -0.4975  0.5057
  148DOPC   H4R20335   0.086   5.991   2.590  0.2671 -1.3817 -0.3194
  148DOPC   H4S20336   0.015   5.865   2.510 -0.8206 -0.6925  0.4918
  148DOPC   C2520337   8.453   5.914   2.702 -0.6119 -0.9602  0.6755
  148DOPC   H5R20338   8.353   5.881   2.666 -1.3277  0.4212  1.3350
  148DOPC   H5S20339   8.431   6.006   2.760 -1.6890 -0.0970 -1.0150
  148DOPC   C2620340   8.527   5.809   2.788 -0.6171  0.3507 -0.5878
  148DOPC   H6R20341   0.004   5.712   2.734  1.7805 -0.8351  1.8464
  148DOPC   H6S20342   8.445   5.799   2.863  0.0018  1.4743  0.2634
  148DOPC   C2720343   0.119   5.869   2.844 -0.0308  0.2003 -0.0937
  148DOPC   H7R20344   0.102   5.977   2.865 -1.2851  0.1872 -0.9481
  148DOPC   H7S20345   0.198   5.858   2.766  0.4892 -0.4460  0.5089
  148DOPC   C2820346   0.163   5.803   2.976  0.0321 -0.0939 -0.3622
  148DOPC   H8R20347   0.154   5.695   2.949 -1.2333 -0.2215  0.4954
  148DOPC   H8S20348   0.084   5.820   3.052  1.1802  0.2313  0.7786
  148DOPC   C2920349   0.291   5.855   3.032 -0.1253 -0.0037 -0.2167
  148DOPC   H9R20350   0.305   5.962   3.009 -2.1365  0.2174 -0.6259
  148DOPC  C21020351   0.378   5.793   3.107  0.3171 -0.0955 -0.5025
  148DOPC  H10R20352   0.459   5.857   3.145 -0.9204  0.1595  1.8849
  148DOPC  C21120353   0.374   5.648   3.164 -0.2963 -0.0865  1.1295
  148DOPC  H11R20354   0.283   5.594   3.129  0.9999 -1.8852  0.3778
  148DOPC  H11S20355   0.372   5.636   3.275  1.2546 -1.3424  1.0506
  148DOPC  C21220356   0.498   5.573   3.113  0.1145  0.3046  1.0038
  148DOPC  H12R20357   0.595   5.624   3.133  0.4431 -0.0874  0.4375
  148DOPC  H12S20358   0.480   5.564   3.004 -0.0228  0.4924  1.0090
  148DOPC  C21320359   0.522   5.437   3.177  0.3925  0.0601  0.4539
  148DOPC  H13R20360   0.572   5.442   3.276  0.5170  0.0755  0.3899
  148DOPC  H13S20361   0.591   5.396   3.101 -1.2941 -0.9999 -0.5785
  148DOPC  C21420362   0.404   5.345   3.190 -0.0475  0.7474  0.4221
  148DOPC  H14R20363   0.364   5.346   3.086  0.4033  0.2523  0.2362
  148DOPC  H14S20364   0.319   5.372   3.256 -2.0624 -1.8942 -0.8964
  148DOPC  C21520365   0.452   5.194   3.207 -0.1432  0.0810  0.1606
  148DOPC  H15R20366   0.461   5.182   3.317 -1.1997  1.7548  0.4780
  148DOPC  H15S20367   0.550   5.169   3.162  0.5062 -1.1330  2.0861
  148DOPC  C21620368   0.352   5.092   3.163 -0.8819 -0.0917 -0.1564
  148DOPC  H16R20369   0.397   4.991   3.154 -1.0651 -0.0260 -2.5191
  148DOPC  H16S20370   0.315   5.122   3.062  0.5633  1.2424 -0.3399
  148DOPC  C21720371   0.232   5.084   3.259  0.0360 -0.4070 -0.0958
  148DOPC  H17R20372   0.185   5.184   3.248 -0.8307 -1.0094 -2.3548
  148DOPC  H17S20373   0.246   5.073   3.368 -2.0127  1.7217  0.4596
  148DOPC  C21820374   0.131   4.975   3.224  0.7811  0.6286 -0.4975
  148DOPC  H18R20375   0.179   4.875   3.229  1.4866  1.0200  1.0801
  148DOPC  H18S20376   0.096   4.991   3.120  1.4671 -0.2827 -0.8782
  148DOPC  H18T20377   0.051   4.986   3.300  1.7059  1.3240  0.4068
  148DOPC   C3320378   8.287   6.560   2.432 -0.7653  0.1525  0.5421
  148DOPC   H3X20379   8.233   6.600   2.344 -0.8789  0.8761  0.9267
  148DOPC   H3Y20380   8.347   6.474   2.396 -0.0620  0.6737  0.4378
  148DOPC   C3420381   8.385   6.681   2.463  0.1516 -0.0636  0.1194
  148DOPC   H4X20382   8.425   6.651   2.562  0.4520 -0.1122 -0.0141
  148DOPC   H4Y20383   8.323   6.773   2.470  1.8668  1.2208 -0.6324
  148DOPC   C3520384   8.489   6.705   2.358 -0.4853  0.0658 -0.1910
  148DOPC   H5X20385   8.440   6.740   2.265 -0.1662  3.9149  0.8984
  148DOPC   H5Y20386   0.004   6.607   2.344  1.3438  0.7903  0.8751
  148DOPC   C3620387   0.067   6.802   2.401 -0.1159 -0.2065  0.3772
  148DOPC   H6X20388   0.138   6.796   2.316 -1.1421 -0.0452 -0.5023
  148DOPC   H6Y20389   0.029   6.906   2.405 -0.0605 -0.1341 -0.7196
  148DOPC   C3720390   0.149   6.766   2.526  0.7722  0.1732 -0.7255
  148DOPC   H7X20391   0.220   6.848   2.550  0.0539  0.5713  0.0848
  148DOPC   H7Y20392   0.079   6.748   2.611 -1.5263  2.0378 -2.1212
  148DOPC   C3820393   0.234   6.633   2.506  0.9831 -0.0169 -0.6003
  148DOPC   H8X20394   0.172   6.544   2.484 -0.7155  1.1592 -0.7896
  148DOPC   H8Y20395   0.278   6.606   2.604  1.5341  0.0274 -0.8308
  148DOPC   C3920396   0.336   6.653   2.402  0.0268  0.0887  0.2242
  148DOPC   H9X20397   0.303   6.647   2.297 -1.0028 -0.2849  0.5637
  148DOPC  C31020398   0.462   6.676   2.437 -0.2535 -0.4894  0.1962
  148DOPC  H10X20399   0.537   6.691   2.357  0.6984 -2.9074  0.5370
  148DOPC  C31120400   0.523   6.680   2.575  0.1113 -0.0549 -0.2569
  148DOPC  H11X20401   0.572   6.583   2.600 -0.9329 -0.4084  0.4773
  148DOPC  H11Y20402   0.450   6.704   2.655  1.7165  1.3236  0.8746
  148DOPC  C31220403   0.616   6.803   2.572  0.4086  0.3079  0.1497
  148DOPC  H12X20404   0.561   6.886   2.523 -0.2134 -0.6876 -0.8861
  148DOPC  H12Y20405   0.705   6.782   2.509  0.1301  2.8302 -1.2240
  148DOPC  C31320406   0.656   6.850   2.712 -0.1829  0.2314 -0.6567
  148DOPC  H13X20407   0.722   6.938   2.699 -0.6104  0.9038  1.3293
  148DOPC  H13Y20408   0.567   6.878   2.772  1.7076 -0.8394  2.9227
  148DOPC  C31420409   0.730   6.738   2.793  0.1953 -0.3383  0.0197
  148DOPC  H14X20410   0.660   6.653   2.806  0.2701 -0.3240  0.5611
  148DOPC  H14Y20411   0.819   6.710   2.732  1.1884  0.2048  1.1651
  148DOPC  C31520412   0.793   6.776   2.929  0.0914 -0.1900 -0.3512
  148DOPC  H15X20413   0.885   6.836   2.915 -0.6187  0.9542 -0.2492
  148DOPC  H15Y20414   0.825   6.678   2.970  0.1285 -0.6871 -1.5333
  148DOPC  C31620415   0.699   6.855   3.026  0.1558  0.9073 -0.0830
  148DOPC  H16X20416   0.673   6.950   2.974 -0.7314  1.3585  1.1215
  148DOPC  H16Y20417   0.600   6.803   3.032  0.1476  1.0566  1.9743
  148DOPC  C31720418   0.765   6.880   3.160 -0.6691 -0.5736  0.5002
  148DOPC  H17X20419   0.873   6.895   3.137 -1.1359  1.2199 -0.7766
  148DOPC  H17Y20420   0.745   6.986   3.188 -0.1482 -0.3176 -0.0726
  148DOPC  C31820421   0.750   6.775   3.264  0.4344  0.2348 -0.2322
  148DOPC  H18X20422   0.816   6.784   3.353  2.2328 -2.9941 -1.0848
  148DOPC  H18Y20423   0.647   6.782   3.306  1.4652 -0.5135  2.6906
  148DOPC  H18Z20424   0.762   6.672   3.224 -0.5003 -0.2517  0.6838
  149DOPC     N20425   0.164   2.093   1.473  0.0909 -0.2034 -0.8568
  149DOPC   C1220426   0.061   1.987   1.440 -0.3315 -0.7352  0.6765
  149DOPC  H12A20427   0.016   2.001   1.343  1.2679 -0.0382  0.0006
  149DOPC  H12B20428   8.515   2.010   1.507  0.8259  0.3579  1.7532
  149DOPC   C1320429   0.109   2.222   1.426 -0.2713  0.8497 -0.6111
  149DOPC  H13A20430   0.008   2.241   1.457 -0.7679 -0.8528 -1.0761
  149DOPC  H13B20431   0.164   2.309   1.458 -1.6691  1.2985  0.6918
  149DOPC  H13C20432   0.117   2.233   1.319 -1.0055  1.3654 -0.6194
  149DOPC   C1420433   0.295   2.065   1.414 -0.7562 -0.3589 -0.3237
  149DOPC  H14A20434   0.343   1.969   1.430  0.6319 -0.0219 -2.1697
  149DOPC  H14B20435   0.281   2.065   1.307  2.7308 -2.5380 -0.9622
  149DOPC  H14C20436   0.368   2.142   1.431 -2.5264  1.1716  0.6074
  149DOPC   C1520437   0.179   2.110   1.623  0.6044  0.0627  0.4304
  149DOPC  H15A20438   0.250   2.184   1.658 -0.1023  0.3586  1.3009
  149DOPC  H15B20439   0.204   2.016   1.671  1.7831  0.5653  0.8413
  149DOPC  H15C20440   0.090   2.146   1.674  0.5098 -1.4903  1.4371
  149DOPC   C1120441   0.090   1.844   1.479 -0.4344  0.4040 -0.3543
  149DOPC  H11A20442   0.012   1.781   1.431 -0.4831 -0.2231  0.5244
  149DOPC  H11B20443   0.190   1.811   1.444 -1.4184 -2.7741 -0.5516
  149DOPC     P20444   8.470   1.798   1.692 -0.0281  0.2521  0.0550
  149DOPC   O1320445   8.413   1.682   1.626  0.2343  0.2838 -0.5904
  149DOPC   O1420446   8.390   1.922   1.686  0.2264  0.5473  0.2948
  149DOPC   O1220447   0.077   1.833   1.623 -0.6033  0.3507 -0.2524
  149DOPC   O1120448   8.506   1.757   1.838  0.3922  0.9593  0.5109
  149DOPC    C120449   0.069   1.826   1.912 -0.5872  0.3667  0.1239
  149DOPC    HA20450   0.012   1.894   1.979 -2.6402  0.1751 -1.3360
  149DOPC    HB20451   0.130   1.893   1.847 -1.9041 -0.9877 -2.6513
  149DOPC    C220452   0.162   1.740   2.007  0.1539 -0.1061  0.3512
  149DOPC    HS20453   0.193   1.647   1.955  0.0960 -0.7723  1.4572
  149DOPC   O2120454   0.097   1.710   2.131 -0.2011 -0.2069 -0.9060
  149DOPC   C2120455   0.013   1.609   2.114 -0.1618 -0.3449  0.8368
  149DOPC   O2220456   8.529   1.544   2.014  0.1601  0.3157  0.4916
  149DOPC   C2220457   8.484   1.588   2.253  0.2045  0.2308  0.4153
  149DOPC   H2R20458   8.433   1.490   2.260 -1.2189  0.6407 -2.4521
  149DOPC   H2S20459   8.395   1.655   2.251  0.0129 -0.0317 -0.0102
  149DOPC    C320460   0.292   1.815   2.040 -0.4775 -0.3193 -0.0091
  149DOPC    HX20461   0.268   1.913   2.088  0.7674  0.5052 -0.9995
  149DOPC    HY20462   0.351   1.849   1.952 -1.0899 -1.1789 -0.7733
  149DOPC   O3120463   0.384   1.742   2.122 -0.2828 -0.4297 -0.1001
  149DOPC   C3120464   0.464   1.666   2.059 -0.1883  0.2343  0.8312
  149DOPC   O3220465   0.475   1.653   1.935  0.6198 -0.7194 -0.5545
  149DOPC   C3220466   0.549   1.585   2.154  0.1821  0.0182  0.8002
  149DOPC   H2X20467   0.623   1.539   2.085 -1.2975  1.4135 -1.8867
  149DOPC   H2Y20468   0.598   1.650   2.230  2.2403  0.9759 -1.2323
  149DOPC   C2320469   0.046   1.606   2.366  0.8855  0.1999 -0.3082
  149DOPC   H3R20470   0.066   1.715   2.359 -0.8975  0.5094 -1.3912
  149DOPC   H3S20471   0.140   1.549   2.351  0.9640 -0.3587  2.0422
  149DOPC   C2420472   8.531   1.560   2.499 -0.4647  0.8392  0.1534
  149DOPC   H4R20473   8.421   1.570   2.493 -0.5281 -0.3229 -1.6140
  149DOPC   H4S20474   0.054   1.615   2.576  0.7392  3.0618 -2.1708
  149DOPC   C2520475   0.021   1.404   2.527 -0.1184  0.2881 -0.5949
  149DOPC   H5R20476   0.129   1.379   2.521 -0.6851 -2.1623 -1.8437
  149DOPC   H5S20477   8.498   1.355   2.446 -0.8218  1.0366 -0.5574
  149DOPC   C2620478   8.499   1.372   2.665 -0.3671  1.1241  0.1589
  149DOPC   H6R20479   8.393   1.403   2.654 -0.5166  1.4145  2.0703
  149DOPC   H6S20480   0.029   1.438   2.727  0.4521 -0.6604  1.3059
  149DOPC   C2720481   8.508   1.220   2.692  0.4896 -0.3982  0.3316
  149DOPC   H7R20482   0.077   1.182   2.693  1.1256  1.2502  0.5402
  149DOPC   H7S20483   8.457   1.171   2.606  1.0984 -0.8514  0.2186
  149DOPC   C2820484   8.425   1.177   2.812  0.4199 -0.2894  0.8004
  149DOPC   H8R20485   8.425   1.067   2.829  1.4647 -0.5319 -0.6064
  149DOPC   H8S20486   8.325   1.223   2.800  0.1404 -1.0251  0.2110
  149DOPC   C2920487   8.496   1.229   2.934  0.4239 -0.4203 -0.5536
  149DOPC   H9R20488   8.499   1.339   2.942  2.1697 -0.5004  0.4646
  149DOPC  C21020489   0.035   1.161   3.025 -0.9250 -0.0804  0.8379
  149DOPC  H10R20490   0.086   1.211   3.109 -0.1627 -0.4133  0.5767
  149DOPC  C21120491   0.056   1.011   3.015 -0.1883 -0.7265  0.5608
  149DOPC  H11R20492   0.157   0.993   3.059  0.8083 -2.6112 -2.2017
  149DOPC  H11S20493   0.080   0.984   2.910  1.0734 -0.4207  0.7478
  149DOPC  C21220494   8.475   0.926   3.070 -0.6277  0.5409 -0.1321
  149DOPC  H12R20495   8.500   0.821   3.047  0.1353  0.6357  0.2419
  149DOPC  H12S20496   8.377   0.947   3.021 -0.8209 -0.6369 -0.2856
  149DOPC  C21320497   8.452   0.943   3.225 -0.0609  0.1526 -0.3167
  149DOPC  H13R20498   8.402   1.033   3.267 -0.3503 -0.0852 -0.1528
  149DOPC  H13S20499   0.012   0.924   3.279 -0.4919 -1.5592 -0.1120
  149DOPC  C21420500   8.361   0.827   3.283  0.3115 -0.1114  0.6394
  149DOPC  H14R20501   8.416   0.737   3.250  1.0118  0.5951 -0.1959
  149DOPC  H14S20502   8.261   0.824   3.237  0.7812 -1.8911 -0.3403
  149DOPC  C21520503   8.347   0.841   3.439 -0.8520 -0.1588  0.2469
  149DOPC  H15R20504   8.285   0.756   3.474 -1.5559  1.2036  2.5235
  149DOPC  H15S20505   8.295   0.931   3.477  1.6524  1.3584  0.2536
  149DOPC  C21620506   8.480   0.830   3.517 -0.8706  0.2638 -0.7580
  149DOPC  H16R20507   0.028   0.887   3.472  0.1468  0.0716  0.8085
  149DOPC  H16S20508   8.512   0.725   3.500 -1.4226 -0.0679  0.1523
  149DOPC  C21720509   8.476   0.848   3.674 -0.1581  0.3372 -0.4860
  149DOPC  H17R20510   8.401   0.776   3.714 -0.6192  0.2721 -1.4275
  149DOPC  H17S20511   8.453   0.955   3.691 -2.3583 -0.0890 -0.4032
  149DOPC  C21820512   0.071   0.812   3.730 -0.1472 -0.2726  0.2693
  149DOPC  H18R20513   0.068   0.817   3.841 -1.6178 -0.7964  0.2835
  149DOPC  H18S20514   0.158   0.868   3.691 -0.2693  0.2053  0.6848
  149DOPC  H18T20515   0.100   0.706   3.710  0.6542 -0.1723  0.8806
  149DOPC   C3320516   0.463   1.471   2.219  0.7703 -0.6294  0.0784
  149DOPC   H3X20517   0.451   1.393   2.140  0.7461  1.3279 -1.9584
  149DOPC   H3Y20518   0.360   1.505   2.238  0.9457  0.0613 -0.1799
  149DOPC   C3420519   0.517   1.425   2.349 -0.1114  0.0700 -0.4490
  149DOPC   H4X20520   0.500   1.508   2.422 -1.0737 -1.3245  0.9839
  149DOPC   H4Y20521   0.621   1.389   2.357 -1.0569 -2.6636  0.8318
  149DOPC   C3520522   0.444   1.304   2.412 -0.2710 -0.4999 -0.3416
  149DOPC   H5X20523   0.454   1.212   2.350 -0.0102 -1.4182  1.0257
  149DOPC   H5Y20524   0.335   1.328   2.420  0.3823  2.2218  2.1097
  149DOPC   C3620525   0.502   1.280   2.551 -0.7539  0.3522 -0.4441
  149DOPC   H6X20526   0.602   1.232   2.551 -0.6415  0.5172  1.5809
  149DOPC   H6Y20527   0.514   1.383   2.592 -0.7630 -0.5543  1.9425
  149DOPC   C3720528   0.415   1.205   2.638 -0.4141 -0.0976 -0.3427
  149DOPC   H7X20529   0.314   1.246   2.616  0.4355  1.6452 -1.2227
  149DOPC   H7Y20530   0.408   1.095   2.619  2.3364 -0.2811 -0.7668
  149DOPC   C3820531   0.435   1.236   2.792  0.1790  0.1594 -0.3944
  149DOPC   H8X20532   0.332   1.235   2.834 -1.4190  0.9890 -3.9063
  149DOPC   H8Y20533   0.467   1.342   2.802  2.6106 -0.5946  0.4958
  149DOPC   C3920534   0.529   1.133   2.848  0.5967  0.7288  0.2401
  149DOPC   H9X20535   0.595   1.076   2.780  1.1065  0.5870  0.8390
  149DOPC  C31020536   0.543   1.098   2.978  0.5507  0.4596  0.1236
  149DOPC  H10X20537   0.630   1.037   3.006  1.3848  0.6160 -1.9406
  149DOPC  C31120538   0.459   1.147   3.090 -0.2261 -0.7836 -0.0739
  149DOPC  H11X20539   0.448   1.077   3.176 -3.1074 -1.0704 -0.5767
  149DOPC  H11Y20540   0.355   1.169   3.058 -0.4186  0.7936  1.4368
  149DOPC  C31220541   0.508   1.281   3.159  0.2565 -0.1454  0.1248
  149DOPC  H12X20542   0.493   1.366   3.090  1.3868  1.9613  2.3076
  149DOPC  H12Y20543   0.618   1.276   3.175  0.5461  1.8928 -0.9155
  149DOPC  C31320544   0.442   1.311   3.296 -0.1712 -0.1746  0.2022
  149DOPC  H13X20545   0.435   1.422   3.307 -0.2363 -0.3199  2.0408
  149DOPC  H13Y20546   0.332   1.295   3.292 -0.2081  0.2528 -0.8316
  149DOPC  C31420547   0.515   1.254   3.413 -0.2331 -0.2986 -0.3881
  149DOPC  H14X20548   0.483   1.148   3.423  0.4798 -0.7957 -2.7863
  149DOPC  H14Y20549   0.625   1.259   3.396 -0.2221  1.5604 -0.0166
  149DOPC  C31520550   0.504   1.331   3.546 -0.1956 -0.5674 -0.1557
  149DOPC  H15X20551   0.412   1.392   3.557  0.2909 -0.1435  2.0982
  149DOPC  H15Y20552   0.585   1.408   3.543  0.9703 -1.6998  1.0222
  149DOPC  C31620553   0.505   1.244   3.676 -0.0409  0.7410 -0.4172
  149DOPC  H16X20554   0.410   1.186   3.680  0.1030  0.1004 -3.4245
  149DOPC  H16Y20555   0.586   1.169   3.683 -0.8395 -0.2441 -1.2791
  149DOPC  C31720556   0.522   1.340   3.794  0.4257  0.0393  0.6445
  149DOPC  H17X20557   0.612   1.404   3.785  0.8612 -0.6350  0.1067
  149DOPC  H17Y20558   0.440   1.415   3.795  1.1476  1.0588 -2.8490
  149DOPC  C31820559   0.523   1.266   3.924  0.1890  0.1016 -0.1217
  149DOPC  H18X20560   0.432   1.205   3.943  1.0286 -0.9834  0.4870
  149DOPC  H18Y20561   0.599   1.185   3.916 -0.2285 -0.3117  0.0790
  149DOPC  H18Z20562   0.539   1.335   4.010  0.1830 -0.3020  0.2039
  150DOPC     N20563   5.564   1.400   1.448  0.2138  0.4465 -0.4347
  150DOPC   C1220564   5.464   1.307   1.519 -0.1786  0.1344 -0.1105
  150DOPC  H12A20565   5.400   1.263   1.443  0.6752 -2.5905  0.6211
  150DOPC  H12B20566   5.395   1.367   1.576 -0.4955 -0.5349  0.2265
  150DOPC   C1320567   5.491   1.527   1.411 -0.2995 -0.0838  0.4388
  150DOPC  H13A20568   5.560   1.606   1.387 -1.5196  1.1410  0.8030
  150DOPC  H13B20569   5.419   1.506   1.333 -0.5309 -0.7182  0.8153
  150DOPC  H13C20570   5.441   1.555   1.502 -1.9590 -1.5578  0.0564
  150DOPC   C1420571   5.624   1.325   1.328  0.0046 -0.8716 -0.1026
  150DOPC  H14A20572   5.707   1.382   1.289 -1.7599  1.0613 -1.2759
  150DOPC  H14B20573   5.668   1.234   1.366 -0.1467 -0.8226  0.1881
  150DOPC  H14C20574   5.548   1.306   1.253  0.5680 -2.5308 -0.2879
  150DOPC   C1520575   5.692   1.415   1.533  1.4362  0.4513 -0.0819
  150DOPC  H15A20576   5.773   1.444   1.466 -1.8513  0.5171 -4.4611
  150DOPC  H15B20577   5.720   1.322   1.581  1.4815  0.7086  0.3974
  150DOPC  H15C20578   5.678   1.486   1.613 -3.7067 -0.3227 -0.0003
  150DOPC   C1120579   5.521   1.190   1.601  0.1141  0.0890  0.6649
  150DOPC  H11A20580   5.580   1.227   1.688 -0.8243 -1.5312  2.0541
  150DOPC  H11B20581   5.431   1.147   1.648  0.0478  0.1752  0.6176
  150DOPC     P20582   5.731   1.048   1.543 -0.0849 -0.3333  0.0672
  150DOPC   O1320583   5.807   1.077   1.424  0.1058 -0.0537  0.5462
  150DOPC   O1420584   5.715   0.910   1.592  0.2902 -0.9973 -0.5221
  150DOPC   O1220585   5.586   1.094   1.511  0.5649  0.0989 -0.5567
  150DOPC   O1120586   5.784   1.145   1.658  0.1714  0.1160 -0.1130
  150DOPC    C120587   5.890   1.093   1.732  0.8555 -0.3774  0.3035
  150DOPC    HA20588   5.979   1.074   1.669  0.1911  1.9416 -1.4990
  150DOPC    HB20589   5.858   1.002   1.787 -0.8593  0.3677  0.6087
  150DOPC    C220590   5.930   1.194   1.836  0.1010  0.0192 -0.3557
  150DOPC    HS20591   5.973   1.281   1.782 -0.6172  1.4030  1.2272
  150DOPC   O2120592   6.018   1.135   1.933  0.5513  0.4430 -0.8287
  150DOPC   C2120593   6.105   1.226   1.986  0.3707  0.3414  0.1809
  150DOPC   O2220594   6.119   1.338   1.942  0.1781 -0.5446  0.0806
  150DOPC   C2220595   6.204   1.164   2.085  0.3233  0.4156  0.1085
  150DOPC   H2R20596   6.274   1.240   2.126  2.9890 -3.2243  2.9451
  150DOPC   H2S20597   6.253   1.074   2.041  0.4578  0.5491 -0.0143
  150DOPC    C320598   5.801   1.256   1.900 -0.4881  0.4277 -0.3784
  150DOPC    HX20599   5.748   1.180   1.960 -0.3688  0.1585 -0.6131
  150DOPC    HY20600   5.730   1.289   1.821 -0.2170 -0.8772 -1.1904
  150DOPC   O3120601   5.833   1.357   2.000  0.0557  0.2042 -0.2541
  150DOPC   C3120602   5.856   1.487   1.958  0.1211 -0.4618  0.2746
  150DOPC   O3220603   5.855   1.527   1.843 -0.5860 -0.1749  0.4219
  150DOPC   C3220604   5.872   1.569   2.090  0.6673 -0.2439  0.5422
  150DOPC   H2X20605   5.783   1.551   2.154  0.5588  0.9920  0.7597
  150DOPC   H2Y20606   5.960   1.527   2.144  0.4558 -0.0099  1.0668
  150DOPC   C2320607   6.128   1.121   2.216  0.8592 -0.5747  0.0773
  150DOPC   H3R20608   6.202   1.078   2.287  2.7792  1.6543 -0.4477
  150DOPC   H3S20609   6.047   1.050   2.191 -0.7479  1.1718  0.0994
  150DOPC   C2420610   6.059   1.242   2.292 -0.3427  0.1542  0.1316
  150DOPC   H4R20611   5.992   1.197   2.369  1.4192 -0.4334  1.3874
  150DOPC   H4S20612   6.004   1.303   2.217 -0.9297  0.4022  0.7487
  150DOPC   C2520613   6.153   1.337   2.365 -0.4174  0.0634 -0.8244
  150DOPC   H5R20614   6.222   1.274   2.426 -1.2797 -0.5115 -0.4237
  150DOPC   H5S20615   6.213   1.400   2.296  1.8267 -0.2923  0.6806
  150DOPC   C2620616   6.085   1.432   2.471  0.4511  0.2873  0.2689
  150DOPC   H6R20617   6.021   1.372   2.539  0.7123  0.5348  0.7450
  150DOPC   H6S20618   6.028   1.510   2.417  0.3923 -1.0880 -1.7466
  150DOPC   C2720619   6.185   1.496   2.572  0.4603  0.0853 -0.2536
  150DOPC   H7R20620   6.272   1.527   2.510 -0.2067 -1.0496 -1.7976
  150DOPC   H7S20621   6.236   1.412   2.625  0.9092  1.6418  1.9487
  150DOPC   C2820622   6.137   1.615   2.650 -0.3568 -0.1700  0.4009
  150DOPC   H8R20623   6.096   1.688   2.576 -2.0029 -1.7253 -0.2954
  150DOPC   H8S20624   6.224   1.661   2.701  0.0861 -0.6045  0.0506
  150DOPC   C2920625   6.021   1.580   2.744 -0.5290 -0.1652 -0.3950
  150DOPC   H9R20626   5.918   1.606   2.716 -0.2257 -0.1774 -1.5561
  150DOPC  C21020627   6.041   1.547   2.868  0.3134 -0.2070 -0.0324
  150DOPC  H10R20628   5.959   1.560   2.941 -0.0987  0.2015 -0.5631
  150DOPC  C21120629   6.173   1.525   2.934  0.6397  0.0437  0.5204
  150DOPC  H11R20630   6.253   1.602   2.920  0.6500 -0.1747 -0.7070
  150DOPC  H11S20631   6.217   1.434   2.889 -0.3227 -0.6560  0.9716
  150DOPC  C21220632   6.161   1.483   3.087 -0.2346 -0.4018  0.3910
  150DOPC  H12R20633   6.071   1.420   3.106 -1.7290  0.8483 -1.9871
  150DOPC  H12S20634   6.156   1.580   3.141  1.1673 -0.2491  0.2679
  150DOPC  C21320635   6.286   1.404   3.120 -0.2830 -0.3036 -0.4561
  150DOPC  H13R20636   6.375   1.465   3.093 -0.9006  1.7975  1.8386
  150DOPC  H13S20637   6.289   1.307   3.066  0.3024 -1.0282  0.8382
  150DOPC  C21420638   6.296   1.367   3.269  0.4686 -0.6738 -0.3999
  150DOPC  H14R20639   6.202   1.310   3.289 -0.9849  1.2648 -1.4046
  150DOPC  H14S20640   6.285   1.458   3.330 -1.3869 -1.3388  0.3479
  150DOPC  C21520641   6.415   1.271   3.308  0.0468 -0.2375  0.7367
  150DOPC  H15R20642   6.402   1.187   3.236 -1.3801  2.4103 -2.3455
  150DOPC  H15S20643   6.412   1.252   3.418 -0.1803  5.5576  2.0450
  150DOPC  C21620644   6.556   1.331   3.283  0.9719  0.0697  0.3242
  150DOPC  H16R20645   6.571   1.350   3.175 -0.2201 -0.1210  0.1080
  150DOPC  H16S20646   6.628   1.256   3.321 -0.6506 -1.3671  0.7355
  150DOPC  C21720647   6.578   1.461   3.358 -0.9349  0.3773  0.5618
  150DOPC  H17R20648   6.536   1.449   3.460  1.0727 -1.3097  1.2510
  150DOPC  H17S20649   6.518   1.542   3.311 -0.5304 -0.2466 -1.1051
  150DOPC  C21820650   6.716   1.503   3.361 -0.0204 -0.5771  0.5775
  150DOPC  H18R20651   6.783   1.432   3.414 -1.6479 -3.4984 -1.0179
  150DOPC  H18S20652   6.717   1.608   3.397  0.1597  0.4557 -2.1460
  150DOPC  H18T20653   6.761   1.514   3.260  0.4483 -0.1885  0.8258
  150DOPC   C3320654   5.903   1.720   2.074 -0.2834  0.4070 -0.1513
  150DOPC   H3X20655   5.814   1.758   2.019  0.3836 -0.4323 -1.9032
  150DOPC   H3Y20656   5.994   1.727   2.011 -2.5343  0.7413 -3.6574
  150DOPC   C3420657   5.941   1.787   2.211  0.0914  0.2968  0.1448
  150DOPC   H4X20658   6.036   1.743   2.248  1.9489  2.8330 -1.2761
  150DOPC   H4Y20659   5.850   1.771   2.273 -1.6641  0.6649 -2.2263
  150DOPC   C3520660   5.964   1.941   2.196 -0.8651  0.1068  0.0856
  150DOPC   H5X20661   6.019   1.960   2.101 -2.1629  2.3329 -0.2802
  150DOPC   H5Y20662   6.032   1.973   2.277 -1.8281  0.8016  0.6323
  150DOPC   C3620663   5.827   2.018   2.203 -0.0955  0.2369 -0.3177
  150DOPC   H6X20664   5.765   1.982   2.118  1.7190  1.3769 -2.2101
  150DOPC   H6Y20665   5.773   1.993   2.297 -0.8209 -0.4044 -0.8952
  150DOPC   C3720666   5.830   2.175   2.198  0.2871 -0.6110  0.2299
  150DOPC   H7X20667   5.880   2.210   2.105  3.0871 -1.0569  1.4411
  150DOPC   H7Y20668   5.724   2.207   2.198 -0.2808 -2.2806 -1.3422
  150DOPC   C3820669   5.898   2.241   2.320 -0.0417 -0.2126  0.0189
  150DOPC   H8X20670   5.979   2.166   2.333 -1.4388 -1.9470 -0.8907
  150DOPC   H8Y20671   5.842   2.246   2.416  1.8057  2.4629  1.0682
  150DOPC   C3920672   5.961   2.374   2.289  0.1379  0.4367 -0.3937
  150DOPC   H9X20673   6.046   2.364   2.220  1.7545 -1.9228  1.7342
  150DOPC  C31020674   5.916   2.490   2.338  0.3425  0.7691 -0.2233
  150DOPC  H10X20675   5.974   2.580   2.313 -0.5929  1.4367 -0.0586
  150DOPC  C31120676   5.802   2.517   2.432  0.4437 -0.2109 -0.2748
  150DOPC  H11X20677   5.730   2.433   2.443  0.2200  0.2435  2.1422
  150DOPC  H11Y20678   5.744   2.606   2.400  0.0269  0.1334  1.3834
  150DOPC  C31220679   5.856   2.549   2.577 -0.1969  0.6106  1.0856
  150DOPC  H12X20680   5.922   2.638   2.585 -2.5742  2.4143  1.9065
  150DOPC  H12Y20681   5.922   2.463   2.597  0.2358  0.9291  1.0391
  150DOPC  C31320682   5.758   2.544   2.687  0.4854  0.2227  0.0769
  150DOPC  H13X20683   5.677   2.618   2.671  0.4179  0.1579  0.1229
  150DOPC  H13Y20684   5.714   2.442   2.683  1.0900 -0.0601  0.4116
  150DOPC  C31420685   5.831   2.557   2.824 -0.1490  0.7279  0.2859
  150DOPC  H14X20686   5.912   2.481   2.823 -1.2152 -0.4307  0.1394
  150DOPC  H14Y20687   5.889   2.652   2.823  2.8329 -0.9317 -2.1220
  150DOPC  C31520688   5.747   2.526   2.947 -0.2078  0.0556  0.1694
  150DOPC  H15X20689   5.650   2.574   2.921 -0.5661 -0.4138  0.6197
  150DOPC  H15Y20690   5.791   2.579   3.034 -0.5989 -0.7917  0.8981
  150DOPC  C31620691   5.720   2.376   2.968 -0.3409 -0.8109 -0.0684
  150DOPC  H16X20692   5.683   2.329   2.874 -0.6560  0.8465 -0.8010
  150DOPC  H16Y20693   5.816   2.325   2.990 -0.6517 -0.7170  1.6418
  150DOPC  C31720694   5.623   2.343   3.089 -0.5933 -0.6250 -0.3055
  150DOPC  H17X20695   5.654   2.389   3.185  1.4620  0.5005 -1.4151
  150DOPC  H17Y20696   5.535   2.399   3.051  0.0704  1.7977  1.4378
  150DOPC  C31820697   5.601   2.193   3.102  0.1111 -0.4797 -0.2635
  150DOPC  H18X20698   5.691   2.133   3.075  0.2966  1.0435 -3.4337
  150DOPC  H18Y20699   5.568   2.163   3.204 -1.5358  1.0252 -0.3055
  150DOPC  H18Z20700   5.518   2.150   3.042  0.3794 -3.8159  1.5191
  151DOPC     N20701   2.818   5.567   1.383 -0.5712  0.1116 -0.4360
  151DOPC   C1220702   2.753   5.597   1.519 -1.2266  0.6277  0.4107
  151DOPC  H12A20703   2.821   5.656   1.579 -1.2773  0.3628  0.7349
  151DOPC  H12B20704   2.749   5.506   1.577  1.6914  1.5359  2.2376
  151DOPC   C1320705   2.957   5.504   1.403 -0.2507 -0.1540  0.6014
  151DOPC  H13A20706   3.007   5.501   1.307  0.9936 -3.1289  1.2382
  151DOPC  H13B20707   3.028   5.548   1.471 -0.5032  3.4959 -1.2318
  151DOPC  H13C20708   2.946   5.400   1.429  0.4180 -0.5756 -0.7114
  151DOPC   C1420709   2.845   5.695   1.302 -0.1103 -0.4258  0.0423
  151DOPC  H14A20710   2.904   5.675   1.213 -0.4530  0.6699 -0.4526
  151DOPC  H14B20711   2.758   5.755   1.278  0.8219  1.1482  0.4510
  151DOPC  H14C20712   2.901   5.758   1.369  1.2359 -1.8438  0.3156
  151DOPC   C1520713   2.733   5.466   1.313 -0.0321  0.4390  0.3717
  151DOPC  H15A20714   2.640   5.518   1.298 -1.4064 -1.8425  0.4185
  151DOPC  H15B20715   2.717   5.371   1.363  0.9742 -0.2412 -0.5577
  151DOPC  H15C20716   2.759   5.448   1.210 -0.4151  0.3050  0.2968
  151DOPC   C1120717   2.617   5.672   1.515  0.2810  0.5335  0.1004
  151DOPC  H11A20718   2.606   5.710   1.619 -1.2820  1.9658 -0.5371
  151DOPC  H11B20719   2.625   5.759   1.446 -0.2263  0.1886 -0.4089
  151DOPC     P20720   2.436   5.497   1.580  0.1923  0.0398 -0.1187
  151DOPC   O1320721   2.381   5.386   1.505 -0.4502  0.4270  0.1066
  151DOPC   O1420722   2.338   5.587   1.649 -0.2248  0.2943 -0.1176
  151DOPC   O1220723   2.506   5.589   1.474  0.2475  0.0616  0.0192
  151DOPC   O1120724   2.560   5.459   1.669 -0.2334  0.1363  0.7645
  151DOPC    C120725   2.585   5.322   1.706  0.5435 -0.8292  0.4270
  151DOPC    HA20726   2.692   5.305   1.683  0.8073  1.3252 -0.0984
  151DOPC    HB20727   2.527   5.241   1.656 -1.1839  0.7772 -0.2765
  151DOPC    C220728   2.570   5.309   1.858 -0.2820 -0.5420 -0.3698
  151DOPC    HS20729   2.633   5.226   1.895  1.4307  0.4592 -0.9113
  151DOPC   O2120730   2.429   5.288   1.884  0.2905 -0.0377 -0.4812
  151DOPC   C2120731   2.392   5.163   1.885 -0.0145  0.0442  0.6764
  151DOPC   O2220732   2.462   5.065   1.867  0.3186 -0.7446  0.4151
  151DOPC   C2220733   2.250   5.147   1.944  0.3360 -0.6735 -0.5700
  151DOPC   H2R20734   2.221   5.046   1.908  1.6632 -1.2536 -0.0865
  151DOPC   H2S20735   2.191   5.223   1.889 -1.0851 -2.4313 -1.6119
  151DOPC    C320736   2.624   5.439   1.934  0.0896  0.5251  1.3166
  151DOPC    HX20737   2.567   5.527   1.897 -3.1606 -1.9816 -0.1071
  151DOPC    HY20738   2.732   5.445   1.907 -0.4116  0.2413 -1.0029
  151DOPC   O3120739   2.615   5.418   2.072  0.6835  0.2523  0.6411
  151DOPC   C3120740   2.500   5.468   2.134 -0.6302  0.5581 -0.3302
  151DOPC   O3220741   2.411   5.530   2.084 -0.0798  0.5488 -0.7596
  151DOPC   C3220742   2.508   5.420   2.283 -0.0288  0.2496  0.4163
  151DOPC   H2X20743   2.513   5.310   2.273  1.2408  0.4878 -5.4866
  151DOPC   H2Y20744   2.604   5.447   2.332 -0.8870 -1.5087  3.2696
  151DOPC   C2320745   2.242   5.156   2.098 -0.9693 -0.3056  0.2056
  151DOPC   H3R20746   2.134   5.141   2.118 -1.2098 -1.4990 -1.7250
  151DOPC   H3S20747   2.274   5.260   2.121  0.9767 -0.9881  0.8328
  151DOPC   C2420748   2.325   5.053   2.181  0.2949 -0.1880  0.5726
  151DOPC   H4R20749   2.430   5.072   2.151  0.1864  2.2395  1.5397
  151DOPC   H4S20750   2.294   4.950   2.152  0.8897 -0.0892 -0.4831
  151DOPC   C2520751   2.317   5.052   2.331 -0.3663 -0.0936  0.4194
  151DOPC   H5R20752   2.335   5.154   2.370  2.3632  0.1198 -1.1231
  151DOPC   H5S20753   2.405   4.990   2.360  0.1722  0.5138  0.1173
  151DOPC   C2620754   2.189   4.988   2.389 -0.2098 -0.5453 -0.5925
  151DOPC   H6R20755   2.183   4.887   2.343  0.6878 -1.1450  0.5675
  151DOPC   H6S20756   2.105   5.049   2.352  1.2554  1.8753 -0.1408
  151DOPC   C2720757   2.194   4.973   2.544 -0.3117 -0.6008  0.4463
  151DOPC   H7R20758   2.149   5.067   2.582 -0.4616 -0.4260 -0.1622
  151DOPC   H7S20759   2.300   4.974   2.577 -0.9666  0.1384  2.7682
  151DOPC   C2820760   2.117   4.851   2.588  0.5724  0.8322 -0.3267
  151DOPC   H8R20761   2.141   4.835   2.695  0.4194  0.4266 -0.3510
  151DOPC   H8S20762   2.148   4.763   2.527 -0.1708 -0.1466  0.6785
  151DOPC   C2920763   1.963   4.867   2.583 -0.4257  0.5451 -0.2496
  151DOPC   H9R20764   1.924   4.827   2.488 -0.2323  0.3153 -0.2328
  151DOPC  C21020765   1.878   4.892   2.681 -0.1526 -0.0350 -0.8347
  151DOPC  H10R20766   1.770   4.888   2.664 -0.6636  1.8288  1.4337
  151DOPC  C21120767   1.901   4.931   2.819 -0.8180  0.3207 -0.3913
  151DOPC  H11R20768   1.858   5.034   2.827  0.1876  0.8337 -1.3282
  151DOPC  H11S20769   2.008   4.952   2.841 -1.0537 -0.8237  2.2953
  151DOPC  C21220770   1.859   4.823   2.920 -0.5031 -0.3316 -0.6659
  151DOPC  H12R20771   1.752   4.800   2.934 -0.0063 -1.7104  1.2828
  151DOPC  H12S20772   1.883   4.862   3.021  0.2695 -2.1001 -0.1238
  151DOPC  C21320773   1.933   4.695   2.907  0.0577 -0.6368  0.7035
  151DOPC  H13R20774   2.036   4.726   2.877 -0.7779  0.2118 -1.4569
  151DOPC  H13S20775   1.899   4.646   2.813 -1.0499  3.3457 -1.1890
  151DOPC  C21420776   1.938   4.605   3.029 -0.4362  0.2582  0.2820
  151DOPC  H14R20777   2.003   4.648   3.107 -0.2718 -1.0473  0.8968
  151DOPC  H14S20778   1.981   4.507   2.996  0.6158 -0.4692  3.4616
  151DOPC  C21520779   1.807   4.576   3.100 -0.0664 -0.0866  0.1762
  151DOPC  H15R20780   1.732   4.558   3.020  0.7793 -2.8007 -0.1033
  151DOPC  H15S20781   1.772   4.661   3.163  0.3039 -0.7104  1.2578
  151DOPC  C21620782   1.816   4.447   3.184  0.6227 -0.7692 -0.3078
  151DOPC  H16R20783   1.833   4.362   3.115 -0.5067  0.2329 -1.8685
  151DOPC  H16S20784   1.714   4.437   3.225  0.8157 -0.2958  0.3149
  151DOPC  C21720785   1.925   4.446   3.298  0.2672  0.2831  0.7793
  151DOPC  H17R20786   1.908   4.531   3.367 -0.9240  0.3319  0.4550
  151DOPC  H17S20787   2.028   4.453   3.256  0.5619 -1.0225  1.2283
  151DOPC  C21820788   1.926   4.308   3.365  0.3358  1.0974  0.5111
  151DOPC  H18R20789   1.986   4.232   3.310  2.9477  1.3110  2.8796
  151DOPC  H18S20790   1.823   4.295   3.405  0.3135  0.9616  0.4087
  151DOPC  H18T20791   1.981   4.317   3.461 -0.7142  0.1818  1.2190
  151DOPC   C3320792   2.400   5.481   2.366  0.3988 -0.4040  0.3496
  151DOPC   H3X20793   2.300   5.437   2.347  0.5244 -0.5427  0.0144
  151DOPC   H3Y20794   2.386   5.589   2.343  0.1521 -0.7796 -1.3593
  151DOPC   C3420795   2.422   5.462   2.514  0.4687 -0.4296 -0.0946
  151DOPC   H4X20796   2.346   5.517   2.573  0.6986  1.1315 -1.1948
  151DOPC   H4Y20797   2.513   5.523   2.532  0.2141 -0.1519  0.2526
  151DOPC   C3520798   2.438   5.316   2.559 -1.1390 -0.5138 -0.1414
  151DOPC   H5X20799   2.494   5.260   2.481 -0.7355  0.5584 -0.6414
  151DOPC   H5Y20800   2.334   5.279   2.567 -2.2398  2.3450  0.2709
  151DOPC   C3620801   2.497   5.305   2.703 -0.0205 -0.3155 -0.0437
  151DOPC   H6X20802   2.578   5.379   2.715 -0.1364 -0.2090  0.0761
  151DOPC   H6Y20803   2.421   5.331   2.779  1.1440 -1.5942  1.6211
  151DOPC   C3720804   2.552   5.168   2.734  0.0999  0.2887  0.0410
  151DOPC   H7X20805   2.474   5.089   2.731  1.6124 -1.2715 -2.6439
  151DOPC   H7Y20806   2.620   5.132   2.653 -3.0091 -2.5687 -1.5412
  151DOPC   C3820807   2.627   5.161   2.872 -0.3006  0.0793 -0.3655
  151DOPC   H8X20808   2.710   5.235   2.870 -0.7610  0.7988  2.5086
  151DOPC   H8Y20809   2.671   5.059   2.878 -2.4699 -0.8905 -0.2584
  151DOPC   C3920810   2.541   5.178   2.990 -0.1572 -0.5962 -0.5435
  151DOPC   H9X20811   2.539   5.283   3.022 -1.2926 -0.9951  0.7725
  151DOPC  C31020812   2.447   5.094   3.042  0.4181 -0.3997  0.0218
  151DOPC  H10X20813   2.395   5.119   3.136 -2.1331 -0.7513 -1.1890
  151DOPC  C31120814   2.433   4.952   2.991 -0.7313  0.3939  0.3818
  151DOPC  H11X20815   2.471   4.876   3.061 -2.8297  0.9411  2.2164
  151DOPC  H11Y20816   2.489   4.938   2.896 -1.1798 -0.4407  0.2322
  151DOPC  C31220817   2.284   4.920   2.964 -0.1379  0.0734  0.3211
  151DOPC  H12X20818   2.274   4.820   2.917 -2.0900  0.1650  0.4888
  151DOPC  H12Y20819   2.239   4.998   2.899 -2.3348 -2.8675 -1.9513
  151DOPC  C31320820   2.203   4.915   3.092 -0.7625 -0.1564 -0.2448
  151DOPC  H13X20821   2.222   5.012   3.143 -2.5015  0.7888 -1.2896
  151DOPC  H13Y20822   2.097   4.886   3.079 -0.8019  0.4809 -1.5853
  151DOPC  C31420823   2.245   4.808   3.189 -0.3096 -0.1955 -0.1315
  151DOPC  H14X20824   2.257   4.713   3.133 -2.6602 -0.2858 -0.5672
  151DOPC  H14Y20825   2.345   4.835   3.230 -0.2196 -0.0398 -0.4462
  151DOPC  C31520826   2.144   4.785   3.309 -0.2323  0.6638  0.7676
  151DOPC  H15X20827   2.042   4.781   3.264 -0.0031  4.0460 -0.3905
  151DOPC  H15Y20828   2.135   4.864   3.387 -0.9830 -1.1993  2.6768
  151DOPC  C31620829   2.179   4.650   3.382  0.2224 -0.8041 -0.6372
  151DOPC  H16X20830   2.101   4.624   3.456  2.0369  0.6952  1.9810
  151DOPC  H16Y20831   2.193   4.569   3.308  0.8362  0.1103 -1.5433
  151DOPC  C31720832   2.314   4.661   3.463  0.1045  0.3722 -0.1641
  151DOPC  H17X20833   2.395   4.691   3.393 -0.6145 -0.1831 -1.2727
  151DOPC  H17Y20834   2.311   4.733   3.548 -1.1380  0.2263 -0.0648
  151DOPC  C31820835   2.346   4.524   3.530 -0.0922 -0.2333  0.3787
  151DOPC  H18X20836   2.378   4.460   3.445  2.6093  0.7194  0.5800
  151DOPC  H18Y20837   2.436   4.523   3.595  0.4024 -1.6366 -0.2861
  151DOPC  H18Z20838   2.256   4.484   3.582 -0.6886 -0.0051 -0.4579
  152DOPC     N20839   4.996   3.112   1.328  0.0490 -0.0684  0.6402
  152DOPC   C1220840   4.899   3.101   1.446  0.5952 -0.1159  0.8617
  152DOPC  H12A20841   4.863   3.000   1.449  1.4382 -0.5940 -2.0452
  152DOPC  H12B20842   4.806   3.148   1.417  0.1938 -2.1892 -1.5220
  152DOPC   C1320843   5.108   3.009   1.340 -0.1252 -0.1995 -0.7922
  152DOPC  H13A20844   5.073   2.910   1.364 -0.2802 -0.0760 -0.5018
  152DOPC  H13B20845   5.145   2.993   1.240 -1.6080 -0.2306 -1.3617
  152DOPC  H13C20846   5.188   3.048   1.402 -0.3156  0.0240 -0.6813
  152DOPC   C1420847   5.047   3.249   1.328  0.6240 -0.4891 -0.0464
  152DOPC  H14A20848   5.116   3.271   1.248 -0.6213 -0.5781 -1.1841
  152DOPC  H14B20849   4.958   3.306   1.305  1.0606 -0.4237 -1.6810
  152DOPC  H14C20850   5.094   3.277   1.421  2.0839  3.2759 -1.7318
  152DOPC   C1520851   4.930   3.091   1.197 -0.6626 -0.4490 -0.1365
  152DOPC  H15A20852   4.827   3.121   1.209  0.1320  2.2091  0.6959
  152DOPC  H15B20853   4.932   2.986   1.172 -0.3284 -0.8327  1.3712
  152DOPC  H15C20854   4.972   3.155   1.121 -2.4630  2.0435  0.8299
  152DOPC   C1120855   4.940   3.158   1.585 -0.4999  0.4212  0.2220
  152DOPC  H11A20856   4.881   3.102   1.660 -1.7499 -0.2356 -1.1870
  152DOPC  H11B20857   5.049   3.144   1.604 -0.3294 -2.6418 -2.2104
  152DOPC     P20858   4.758   3.351   1.612 -0.0448  0.0735 -0.6863
  152DOPC   O1320859   4.669   3.280   1.519 -0.0664  0.4084  0.2522
  152DOPC   O1420860   4.783   3.494   1.594 -0.2068 -0.6671 -0.3831
  152DOPC   O1220861   4.903   3.290   1.594 -0.5249 -0.5098 -0.2805
  152DOPC   O1120862   4.717   3.314   1.760 -0.1475 -0.3330 -0.2040
  152DOPC    C120863   4.812   3.350   1.868  0.4399 -0.0476  0.3105
  152DOPC    HA20864   4.837   3.458   1.869 -2.1778  0.6752  2.7211
  152DOPC    HB20865   4.906   3.293   1.852 -0.1020 -0.9914  0.3878
  152DOPC    C220866   4.765   3.323   2.011 -0.0961 -0.7743 -0.5113
  152DOPC    HS20867   4.843   3.365   2.078 -1.6567  2.2029 -0.3772
  152DOPC   O2120868   4.722   3.186   2.037 -0.1190 -0.1802  0.4415
  152DOPC   C2120869   4.821   3.099   2.053 -0.4309 -0.0939  0.5352
  152DOPC   O2220870   4.940   3.124   2.050 -0.0909 -0.0489 -0.0536
  152DOPC   C2220871   4.758   2.958   2.074 -0.6953 -0.1458 -0.3176
  152DOPC   H2R20872   4.660   2.953   2.023 -0.6894  1.1609 -0.5069
  152DOPC   H2S20873   4.734   2.955   2.183  1.8216 -2.6517  0.2949
  152DOPC    C320874   4.648   3.430   2.052 -0.1787 -0.3189 -0.1439
  152DOPC    HX20875   4.565   3.423   1.978 -0.5778 -0.3507  0.3006
  152DOPC    HY20876   4.694   3.531   2.048 -2.0318  0.5343 -1.5027
  152DOPC   O3120877   4.598   3.408   2.186  0.2310 -0.1534  0.4731
  152DOPC   C3120878   4.506   3.316   2.207  0.3923  0.0641 -0.3656
  152DOPC   O3220879   4.443   3.252   2.125  0.2491 -0.1074  0.2122
  152DOPC   C3220880   4.468   3.320   2.356  0.3981 -0.4872 -0.2487
  152DOPC   H2X20881   4.564   3.329   2.410 -0.1638  3.4310  0.4328
  152DOPC   H2Y20882   4.402   3.409   2.368  2.5130  1.1345 -0.1125
  152DOPC   C2320883   4.848   2.836   2.059  0.4202  0.1808  0.0180
  152DOPC   H3R20884   4.953   2.846   2.092  0.8817  1.7129 -1.6999
  152DOPC   H3S20885   4.854   2.811   1.951  0.3137 -0.0943  0.0760
  152DOPC   C2420886   4.791   2.717   2.144  0.5276 -0.1152  0.2151
  152DOPC   H4R20887   4.689   2.704   2.102  0.4249  2.2340 -0.4510
  152DOPC   H4S20888   4.788   2.762   2.245 -0.7755  2.7988 -1.0022
  152DOPC   C2520889   4.875   2.589   2.144  0.1320 -0.5752  0.6969
  152DOPC   H5R20890   4.913   2.574   2.040  2.4283 -0.6644  1.4965
  152DOPC   H5S20891   4.816   2.496   2.163 -0.3875 -0.9928 -2.4056
  152DOPC   C2620892   5.011   2.603   2.219  0.3323  0.0183  0.1610
  152DOPC   H6R20893   5.077   2.688   2.193  1.1812 -1.0466 -1.3060
  152DOPC   H6S20894   5.074   2.516   2.191 -0.5822 -0.8060  0.6068
  152DOPC   C2720895   4.994   2.610   2.375  0.3395  0.0291  1.1019
  152DOPC   H7R20896   4.918   2.530   2.386 -1.0616  1.2124  0.4171
  152DOPC   H7S20897   4.945   2.705   2.407 -2.1313 -0.1592 -1.7136
  152DOPC   C2820898   5.119   2.578   2.457 -0.4357 -0.4293  0.0125
  152DOPC   H8R20899   5.173   2.487   2.426  1.1797  0.3120  0.5297
  152DOPC   H8S20900   5.089   2.560   2.563 -0.4161 -3.5546 -0.4454
  152DOPC   C2920901   5.224   2.688   2.457  0.5975 -0.0960  0.5066
  152DOPC   H9R20902   5.229   2.741   2.361  1.3278  0.4149  0.8159
  152DOPC  C21020903   5.303   2.724   2.553 -0.0757  0.1769 -0.7771
  152DOPC  H10R20904   5.381   2.796   2.525  1.0947 -0.7410  0.0250
  152DOPC  C21120905   5.331   2.657   2.690 -0.7658  0.0992 -0.7970
  152DOPC  H11R20906   5.431   2.675   2.735 -1.7644 -0.3476  1.7766
  152DOPC  H11S20907   5.312   2.548   2.676 -0.1422  0.0694 -1.4935
  152DOPC  C21220908   5.219   2.720   2.778 -0.1028  0.9263  0.2816
  152DOPC  H12R20909   5.217   2.661   2.872  1.7244  2.8714  1.6261
  152DOPC  H12S20910   5.114   2.710   2.741 -0.1885  0.7640  0.5617
  152DOPC  C21320911   5.261   2.861   2.817 -0.0571 -0.5833 -0.9002
  152DOPC  H13R20912   5.240   2.931   2.733 -2.9060  0.8069  0.8338
  152DOPC  H13S20913   5.368   2.853   2.844 -0.3328  0.1247  0.4372
  152DOPC  C21420914   5.171   2.920   2.931 -0.1406 -0.5002  0.2131
  152DOPC  H14R20915   5.071   2.903   2.887 -0.4419  1.4413  0.0591
  152DOPC  H14S20916   5.181   3.030   2.944  1.5649 -0.7490  1.5005
  152DOPC  C21520917   5.198   2.838   3.065 -0.3647 -0.0262  0.0028
  152DOPC  H15R20918   5.305   2.837   3.093  0.4809 -1.0545 -2.8619
  152DOPC  H15S20919   5.166   2.734   3.043 -0.6382  0.1404 -0.3996
  152DOPC  C21620920   5.118   2.888   3.186  0.3107 -0.0754 -0.3492
  152DOPC  H16R20921   5.007   2.880   3.175  0.1649  2.3710 -1.2752
  152DOPC  H16S20922   5.138   2.997   3.187  0.2548 -0.0385 -1.4267
  152DOPC  C21720923   5.151   2.819   3.320 -0.5741 -0.5992  0.6538
  152DOPC  H17R20924   5.262   2.820   3.320 -0.3954 -3.7246 -1.6219
  152DOPC  H17S20925   5.125   2.711   3.330 -0.4430 -0.5003  2.1546
  152DOPC  C21820926   5.079   2.894   3.429  0.8663 -0.6859 -0.3820
  152DOPC  H18R20927   5.097   3.003   3.426  1.8186 -0.7452  1.5233
  152DOPC  H18S20928   5.120   2.861   3.527  0.4695 -0.4598 -0.1327
  152DOPC  H18T20929   4.968   2.881   3.424  0.8475 -0.2603 -1.0780
  152DOPC   C3320930   4.382   3.203   2.401  0.3024 -0.9699  0.0904
  152DOPC   H3X20931   4.441   3.109   2.412  1.3104 -0.1827  1.6782
  152DOPC   H3Y20932   4.288   3.198   2.341 -0.5431 -1.7145  1.4110
  152DOPC   C3420933   4.349   3.236   2.549  0.1418  0.6572  0.7635
  152DOPC   H4X20934   4.302   3.336   2.544 -0.8035  0.1684 -0.9872
  152DOPC   H4Y20935   4.429   3.241   2.625 -1.1242  2.5836  2.0529
  152DOPC   C3520936   4.241   3.140   2.604  0.4473 -0.1737 -0.2067
  152DOPC   H5X20937   4.146   3.145   2.546 -0.9254 -1.5797  1.8235
  152DOPC   H5Y20938   4.211   3.186   2.701  4.4015  2.1905  0.0899
  152DOPC   C3620939   4.278   2.995   2.642  0.1071 -0.4457  0.3033
  152DOPC   H6X20940   4.207   2.959   2.720  1.5868 -1.5753  1.1737
  152DOPC   H6Y20941   4.262   2.929   2.555 -0.1287 -0.6476  0.4962
  152DOPC   C3720942   4.417   2.992   2.701 -0.3533 -0.5126  0.0371
  152DOPC   H7X20943   4.488   3.021   2.620  1.9861 -0.4159  2.0107
  152DOPC   H7Y20944   4.433   3.064   2.784  2.0525 -1.7278  0.7154
  152DOPC   C3820945   4.455   2.855   2.759  0.0222 -0.3379  0.1190
  152DOPC   H8X20946   4.506   2.793   2.682 -0.9987 -2.7251  1.2495
  152DOPC   H8Y20947   4.361   2.805   2.789 -0.8591  1.6000  0.7591
  152DOPC   C3920948   4.548   2.876   2.874 -0.7195 -0.1818  0.5324
  152DOPC   H9X20949   4.500   2.874   2.973 -0.5319 -1.1013  0.6192
  152DOPC  C31020950   4.681   2.881   2.866 -0.5017  0.3316  0.4027
  152DOPC  H10X20951   4.733   2.889   2.963 -0.4362 -4.1256  0.9629
  152DOPC  C31120952   4.757   2.879   2.731  0.0387 -0.2966  0.2650
  152DOPC  H11X20953   4.687   2.867   2.646  0.1482  3.3768 -0.5091
  152DOPC  H11Y20954   4.845   2.812   2.720 -0.1547 -0.9253  2.0806
  152DOPC  C31220955   4.809   3.027   2.703  0.0144  0.4942  0.0837
  152DOPC  H12X20956   4.880   3.062   2.781 -2.6720  0.3849  2.7582
  152DOPC  H12Y20957   4.720   3.092   2.698 -0.5202 -0.0970  1.5004
  152DOPC  C31320958   4.887   3.041   2.570  0.2023  0.4542 -0.0100
  152DOPC  H13X20959   4.910   2.945   2.519  3.1615  0.4957  1.0725
  152DOPC  H13Y20960   4.821   3.102   2.504 -4.0392 -0.6498  2.8214
  152DOPC  C31420961   5.017   3.122   2.571  0.6230  0.2857 -0.0417
  152DOPC  H14X20962   4.988   3.219   2.618 -0.9862  0.5084 -1.4352
  152DOPC  H14Y20963   5.087   3.074   2.643  0.8892  0.4119 -0.2147
  152DOPC  C31520964   5.086   3.144   2.433 -0.1179 -0.2044 -0.2512
  152DOPC  H15X20965   5.012   3.177   2.356  0.9583  0.6886 -0.9390
  152DOPC  H15Y20966   5.133   3.048   2.406  1.6131  0.1948  1.1722
  152DOPC  C31620967   5.192   3.257   2.447  0.1388 -0.1957 -0.1219
  152DOPC  H16X20968   5.255   3.268   2.356  0.3882 -0.3739  0.0299
  152DOPC  H16Y20969   5.136   3.353   2.454  1.3868  0.6122 -0.8705
  152DOPC  C31720970   5.282   3.241   2.571  0.4837  0.0386  0.1201
  152DOPC  H17X20971   5.221   3.232   2.663 -0.6733 -3.0041 -0.8167
  152DOPC  H17Y20972   5.331   3.141   2.571 -0.3770 -0.3958 -0.3413
  152DOPC  C31820973   5.389   3.350   2.589 -0.0821 -0.8548 -0.2350
  152DOPC  H18X20974   5.338   3.438   2.634  0.6552 -1.1922  1.3045
  152DOPC  H18Y20975   5.462   3.313   2.664 -2.4005  0.4762  2.9367
  152DOPC  H18Z20976   5.430   3.392   2.495  0.0886 -2.1290 -0.7430
  153DOPC     N20977   6.143   6.987   1.178  0.0652  0.3354  0.5941
  153DOPC   C1220978   6.034   6.888   1.231 -0.8744  0.2055  0.2293
  153DOPC  H12A20979   6.004   6.834   1.143  1.4122  0.6349 -0.9001
  153DOPC  H12B20980   5.950   6.949   1.261 -0.7715  0.6298 -0.3340
  153DOPC   C1320981   6.247   6.894   1.128 -0.1867 -0.3303  0.8244
  153DOPC  H13A20982   6.212   6.833   1.046 -1.6782  1.1410  0.2892
  153DOPC  H13B20983   6.329   6.950   1.087 -1.2728 -0.8783 -2.3186
  153DOPC  H13C20984   6.277   6.827   1.207 -0.6693 -1.4837  0.0619
  153DOPC   C1420985   6.205   7.065   1.291 -0.3337 -0.2886  0.1199
  153DOPC  H14A20986   6.253   6.998   1.360  1.2117  1.2317  0.6012
  153DOPC  H14B20987   6.273   7.140   1.253  0.2467 -0.3166  1.0770
  153DOPC  H14C20988   6.126   7.118   1.342 -0.9387 -2.2935  1.3884
  153DOPC   C1520989   6.098   7.079   1.070 -0.6398 -0.1271 -0.5645
  153DOPC  H15A20990   6.064   7.030   0.980  0.2487 -0.9356 -0.4723
  153DOPC  H15B20991   6.178   7.144   1.038 -0.4652 -0.2362 -0.3538
  153DOPC  H15C20992   6.027   7.148   1.115  2.0857  2.3912  0.2250
  153DOPC   C1120993   6.066   6.797   1.352 -0.3355  0.1629  1.0401
  153DOPC  H11A20994   6.112   6.845   1.441  1.0687  0.1497  0.3439
  153DOPC  H11B20995   5.967   6.752   1.372  1.1895 -4.8354 -1.1986
  153DOPC     P20996   6.167   6.562   1.377  0.2199 -0.0308  0.0897
  153DOPC   O1320997   6.288   6.491   1.327  0.1530 -0.4685 -0.0674
  153DOPC   O1420998   6.049   6.481   1.366 -0.0235 -0.3359 -0.2180
  153DOPC   O1220999   6.147   6.695   1.303  0.0076  0.1827 -0.2650
  153DOPC   O1121000   6.193   6.599   1.532  0.3302  0.3863 -0.1656
  153DOPC    C121001   6.330   6.650   1.559  0.0260  0.0781 -0.6237
  153DOPC    HA21002   6.369   6.725   1.486 -0.1749  0.4728 -0.3228
  153DOPC    HB21003   6.400   6.563   1.568  0.3259  0.0285 -2.8070
  153DOPC    C221004   6.338   6.711   1.697 -0.6268 -0.5702 -0.5240
  153DOPC    HS21005   6.292   6.636   1.766 -0.7780  2.2035  2.6609
  153DOPC   O2121006   6.268   6.843   1.693  0.1241 -0.4484 -0.3727
  153DOPC   C2121007   6.138   6.843   1.732  0.0703  0.1807  0.0208
  153DOPC   O2221008   6.076   6.745   1.758 -0.2088  0.4082 -0.4130
  153DOPC   C2221009   6.088   6.983   1.748  0.3012 -0.4115  0.3557
  153DOPC   H2R21010   6.083   7.029   1.647 -1.5082 -1.3289 -0.0135
  153DOPC   H2S21011   6.167   7.032   1.809  1.9430 -1.8831 -0.4923
  153DOPC    C321012   6.486   6.731   1.733 -0.4584 -0.8528 -0.7311
  153DOPC    HX21013   6.543   6.797   1.665  0.0744 -0.7324 -0.1732
  153DOPC    HY21014   6.544   6.636   1.728  0.7444 -0.1725 -0.2318
  153DOPC   O3121015   6.504   6.768   1.877 -0.0600 -0.0284 -0.0645
  153DOPC   C3121016   6.521   6.897   1.895 -0.5157  0.1926  0.2259
  153DOPC   O3221017   6.522   6.979   1.803  0.9468 -0.4785 -0.9265
  153DOPC   C3221018   6.558   6.926   2.034  0.2631  0.1970 -0.1627
  153DOPC   H2X21019   6.490   6.870   2.102  1.3436 -0.9613  0.0144
  153DOPC   H2Y21020   6.660   6.885   2.055 -0.1946 -0.6603  0.4393
  153DOPC   C2321021   5.955   7.000   1.828  0.7243 -0.3436 -0.5182
  153DOPC   H3R21022   5.956   6.940   1.921  0.6827  1.1112  0.4642
  153DOPC   H3S21023   5.872   6.954   1.771  2.7947 -1.1825 -3.0882
  153DOPC   C2421024   5.930   7.146   1.864  0.2465 -0.8329 -0.9228
  153DOPC   H4R21025   5.822   7.164   1.880  0.6190  0.9479 -0.2795
  153DOPC   H4S21026   5.952   7.218   1.783 -2.2100  1.5015  0.3431
  153DOPC   C2521027   6.005   7.198   1.987  0.2087  0.1679  0.0886
  153DOPC   H5R21028   5.970   7.301   2.010  1.5751  0.3420  1.4994
  153DOPC   H5S21029   6.115   7.199   1.971  0.5797 -1.4951  2.1363
  153DOPC   C2621030   5.986   7.116   2.117 -0.4808  0.3877 -0.2348
  153DOPC   H6R21031   6.031   7.018   2.092  1.3093  1.0673  0.1092
  153DOPC   H6S21032   5.878   7.106   2.138 -0.7560  1.8778 -0.7845
  153DOPC   C2721033   6.059   7.171   2.238 -0.8601  0.0591  0.7545
  153DOPC   H7R21034   6.020   7.273   2.260 -0.9674  0.2117 -0.1106
  153DOPC   H7S21035   6.161   7.190   2.197 -1.3689 -0.6984 -0.9172
  153DOPC   C2821036   6.059   7.066   2.356 -0.1640 -0.2293 -0.0451
  153DOPC   H8R21037   6.113   6.981   2.308 -1.6508 -0.0739 -2.1358
  153DOPC   H8S21038   5.953   7.047   2.384 -0.6793  1.7249 -0.5004
  153DOPC   C2921039   6.146   7.116   2.467  0.1237  0.0046  0.6747
  153DOPC   H9R21040   6.252   7.101   2.440 -0.2143 -0.6565 -0.2969
  153DOPC  C21021041   6.099   7.160   2.584  0.0035 -0.1045  1.0251
  153DOPC  H10R21042   6.168   7.184   2.666 -1.8829  3.7111  1.6926
  153DOPC  C21121043   5.951   7.194   2.616  0.2237 -0.9678  0.3548
  153DOPC  H11R21044   5.891   7.180   2.523  2.5213 -1.1374 -1.1901
  153DOPC  H11S21045   5.936   7.301   2.638 -1.6355 -0.7423 -1.6562
  153DOPC  C21221046   5.892   7.109   2.725  0.1765 -0.5478  0.3020
  153DOPC  H12R21047   5.924   7.157   2.820 -0.6969  0.1138  0.2724
  153DOPC  H12S21048   5.932   7.005   2.727 -1.7802 -1.3903 -1.2535
  153DOPC  C21321049   5.734   7.096   2.727  0.0594 -0.3748 -0.0941
  153DOPC  H13R21050   5.702   7.203   2.732 -1.9664 -0.9666  0.3598
  153DOPC  H13S21051   5.707   7.054   2.826  2.5992  0.7031  1.1377
  153DOPC  C21421052   5.670   7.011   2.616  0.1979  0.0085 -0.0589
  153DOPC  H14R21053   5.702   6.909   2.645  1.7292  0.4170 -0.2355
  153DOPC  H14S21054   5.715   7.035   2.517 -1.0231 -0.5938 -0.7859
  153DOPC  C21521055   5.515   7.024   2.615  1.2964 -0.3722  0.7453
  153DOPC  H15R21056   5.475   7.127   2.604 -0.2249 -1.0859 -1.0606
  153DOPC  H15S21057   5.471   6.984   2.708 -0.7820  1.5804  0.6819
  153DOPC  C21621058   5.447   6.925   2.511 -0.0558 -0.2135  0.1599
  153DOPC  H16R21059   5.495   6.825   2.506 -0.9150 -0.6590  0.6061
  153DOPC  H16S21060   5.459   6.959   2.406 -1.0900 -0.2693  0.0194
  153DOPC  C21721061   5.300   6.910   2.534 -0.2191 -0.0341  0.3220
  153DOPC  H17R21062   5.253   7.010   2.549 -1.7308 -0.2433 -2.3993
  153DOPC  H17S21063   5.290   6.852   2.628  1.2620  0.6940  0.9716
  153DOPC  C21821064   5.235   6.832   2.416 -1.0049 -0.6416  0.1551
  153DOPC  H18R21065   5.125   6.820   2.423 -1.0487 -0.1806  0.3277
  153DOPC  H18S21066   5.284   6.733   2.417 -0.7338 -0.5017  1.1162
  153DOPC  H18T21067   5.254   6.872   2.313  0.6670 -1.1637  0.2267
  153DOPC   C3321068   6.563   7.073   2.077 -0.1399 -0.0915 -0.1496
  153DOPC   H3X21069   6.460   7.110   2.060 -0.6562 -1.2836  0.3236
  153DOPC   H3Y21070   6.640   7.124   2.014 -0.7253  2.2805  0.9394
  153DOPC   C3421071   6.607   7.080   2.222 -0.4344 -0.0219  0.3943
  153DOPC   H4X21072   6.623   7.183   2.260  0.4803 -0.5870  1.5835
  153DOPC   H4Y21073   6.703   7.024   2.226  1.1368  2.6229  1.7635
  153DOPC   C3521074   6.507   7.018   2.323  0.4654  0.8438  0.6107
  153DOPC   H5X21075   6.491   6.908   2.313  3.3743  0.5230 -2.3033
  153DOPC   H5Y21076   6.413   7.071   2.299  1.3047  0.7327 -3.9199
  153DOPC   C3621077   6.554   7.050   2.465 -0.0452 -0.0219  1.0386
  153DOPC   H6X21078   6.571   7.160   2.464 -0.5645  0.0606 -0.4708
  153DOPC   H6Y21079   6.463   7.030   2.525  0.4564 -3.0379  0.9931
  153DOPC   C3721080   6.670   6.968   2.510  0.8316 -0.5481 -0.6362
  153DOPC   H7X21081   6.635   6.863   2.497 -0.8677 -0.4362  2.3158
  153DOPC   H7Y21082   6.758   6.997   2.448  1.4159 -0.6605  0.1366
  153DOPC   C3821083   6.715   6.983   2.660  0.4398 -0.0694  0.5249
  153DOPC   H8X21084   6.722   7.092   2.681 -0.4246 -0.0851  0.9661
  153DOPC   H8Y21085   6.820   6.949   2.655 -0.0517 -1.5194 -0.3280
  153DOPC   C3921086   6.638   6.912   2.770 -0.0702  0.5991  0.2238
  153DOPC   H9X21087   6.640   6.802   2.759  2.2768  0.2458  2.9163
  153DOPC  C31021088   6.550   6.969   2.858 -0.0395 -0.3684  1.1983
  153DOPC  H10X21089   6.484   6.900   2.913 -0.4794 -0.1510  0.9485
  153DOPC  C31121090   6.511   7.109   2.892 -0.0959 -0.2615  0.0504
  153DOPC  H11X21091   6.570   7.185   2.835 -0.7416  0.8189  0.7909
  153DOPC  H11Y21092   6.535   7.134   2.997  0.6472 -1.5621  0.2067
  153DOPC  C31221093   6.363   7.128   2.867  0.1923 -0.0712  0.0745
  153DOPC  H12X21094   6.360   7.142   2.757 -0.3027 -1.6107 -0.1246
  153DOPC  H12Y21095   6.333   7.232   2.895  3.3201  1.0933 -0.4254
  153DOPC  C31321096   6.257   7.031   2.919  0.1154 -0.7842  0.8671
  153DOPC  H13X21097   6.161   7.068   2.877  0.5149  0.7151  1.1838
  153DOPC  H13Y21098   6.267   6.924   2.892 -0.4521 -0.3493 -1.2407
  153DOPC  C31421099   6.237   7.044   3.070  0.2332  0.5258  0.5564
  153DOPC  H14X21100   6.327   7.016   3.129 -0.9044  0.1687  2.1997
  153DOPC  H14Y21101   6.209   7.150   3.091  1.6317  1.2928 -1.1818
  153DOPC  C31521102   6.128   6.938   3.106 -0.7328  0.1130  0.7007
  153DOPC  H15X21103   6.156   6.837   3.068  1.0555 -0.7166  3.8648
  153DOPC  H15Y21104   6.027   6.965   3.068 -1.2314 -1.9650  0.4347
  153DOPC  C31621105   6.110   6.922   3.257 -0.6648 -0.9225 -0.2788
  153DOPC  H16X21106   6.210   6.896   3.299 -1.7710 -2.0274  1.8808
  153DOPC  H16Y21107   6.073   7.019   3.296 -1.3249 -1.0265 -0.6290
  153DOPC  C31721108   6.000   6.828   3.295 -0.2395 -0.5018 -0.3750
  153DOPC  H17X21109   5.911   6.881   3.254  0.4456  0.3124 -0.8493
  153DOPC  H17Y21110   6.021   6.739   3.232  1.4512  1.0944 -2.2002
  153DOPC  C31821111   5.977   6.806   3.440  0.7511  0.4367 -0.3735
  153DOPC  H18X21112   6.076   6.778   3.482  1.5794  0.7090 -2.0457
  153DOPC  H18Y21113   5.942   6.901   3.488 -1.6793 -0.3922 -0.3723
  153DOPC  H18Z21114   5.899   6.728   3.451  0.4683  0.5028 -1.7894
  154DOPC     N21115   1.714   5.392   1.391 -0.8619  0.4673 -0.4234
  154DOPC   C1221116   1.761   5.288   1.499  0.1271  0.0854 -0.7861
  154DOPC  H12A21117   1.689   5.295   1.579  2.0398 -1.2412  1.2193
  154DOPC  H12B21118   1.859   5.319   1.533  0.8045 -0.3219 -2.2784
  154DOPC   C1321119   1.765   5.348   1.255  0.5305  0.1277  0.1188
  154DOPC  H13A21120   1.724   5.251   1.232 -2.8147  1.7024 -1.1748
  154DOPC  H13B21121   1.731   5.417   1.179 -1.8851 -0.6152  0.4578
  154DOPC  H13C21122   1.872   5.334   1.256  1.0325  3.1302 -1.0679
  154DOPC   C1421123   1.769   5.524   1.423  0.5017  0.0011  0.3428
  154DOPC  H14A21124   1.733   5.595   1.350 -1.2552 -1.9005 -0.7401
  154DOPC  H14B21125   1.735   5.555   1.521  2.8882 -1.1203  1.6154
  154DOPC  H14C21126   1.877   5.522   1.420  0.5097 -0.6879  0.7669
  154DOPC   C1521127   1.567   5.396   1.389  0.2217  0.0172 -0.2092
  154DOPC  H15A21128   1.535   5.302   1.346 -0.7394  2.1864 -4.8267
  154DOPC  H15B21129   1.529   5.466   1.317  1.7044 -1.5781 -2.6984
  154DOPC  H15C21130   1.528   5.408   1.489 -0.2050  1.0280 -0.4826
  154DOPC   C1121131   1.790   5.141   1.467 -0.1317  0.2253 -0.0013
  154DOPC  H11A21132   1.879   5.126   1.403 -0.0641 -1.4018  0.4329
  154DOPC  H11B21133   1.814   5.085   1.560  0.4745  0.4334 -0.0315
  154DOPC     P21134   1.554   5.045   1.499  0.0822  0.2713 -0.3303
  154DOPC   O1321135   1.456   4.970   1.410  0.1474  0.3485  0.3674
  154DOPC   O1421136   1.507   5.160   1.577  0.0393  0.6235  0.1401
  154DOPC   O1221137   1.679   5.080   1.403 -0.3122  0.0866  0.7913
  154DOPC   O1121138   1.608   4.934   1.582 -0.2915  0.3078  0.0256
  154DOPC    C121139   1.650   4.927   1.719  0.8054 -0.2557 -0.5255
  154DOPC    HA21140   1.659   5.024   1.773  0.3309 -1.6352  2.2167
  154DOPC    HB21141   1.755   4.901   1.744  0.3445 -0.7748  0.9688
  154DOPC    C221142   1.558   4.830   1.794 -0.1761 -0.1708 -0.2145
  154DOPC    HS21143   1.590   4.821   1.900 -0.4134  0.4390 -0.0821
  154DOPC   O2121144   1.554   4.701   1.723  0.1772  0.2664  0.3052
  154DOPC   C2121145   1.663   4.626   1.742  0.1825  0.0351  0.5301
  154DOPC   O2221146   1.759   4.661   1.813  0.3867  0.3146 -0.5241
  154DOPC   C2221147   1.648   4.501   1.665  0.2131 -0.1462  0.6237
  154DOPC   H2R21148   1.700   4.503   1.567 -1.3920 -1.3866 -0.2979
  154DOPC   H2S21149   1.540   4.488   1.642 -0.9258  4.1395  2.5501
  154DOPC    C321150   1.418   4.886   1.820 -0.0776  0.1618 -0.0910
  154DOPC    HX21151   1.347   4.813   1.865  0.8595  0.3029  1.7222
  154DOPC    HY21152   1.387   4.923   1.720  0.3234 -1.1403 -0.7134
  154DOPC   O3121153   1.440   4.990   1.916  0.0254  0.1369 -0.0207
  154DOPC   C3121154   1.331   5.076   1.919  0.3412  0.6225 -0.1390
  154DOPC   O3221155   1.239   5.074   1.835  0.3044 -0.2224 -0.2414
  154DOPC   C3221156   1.349   5.183   2.027  0.2027  0.1527  0.0519
  154DOPC   H2X21157   1.408   5.140   2.111  0.2101  1.8706  0.9594
  154DOPC   H2Y21158   1.395   5.267   1.970 -0.6552  1.2510  0.9375
  154DOPC   C2321159   1.696   4.386   1.751 -0.2139 -0.2819 -0.6326
  154DOPC   H3R21160   1.621   4.365   1.831  0.7162 -2.4599 -0.2515
  154DOPC   H3S21161   1.797   4.407   1.792  0.3281  0.3678 -2.2510
  154DOPC   C2421162   1.709   4.251   1.678 -0.6732 -0.6176  0.3869
  154DOPC   H4R21163   1.752   4.174   1.746  2.4216  0.8004  0.1584
  154DOPC   H4S21164   1.765   4.266   1.584  0.4931 -0.3901  1.0953
  154DOPC   C2521165   1.566   4.204   1.636  0.7260  0.2508  0.2297
  154DOPC   H5R21166   1.583   4.121   1.564 -0.2385  1.3123 -1.3103
  154DOPC   H5S21167   1.519   4.279   1.568 -2.2137 -2.1587 -0.5993
  154DOPC   C2621168   1.464   4.157   1.740  0.1336 -0.3171  0.2710
  154DOPC   H6R21169   1.366   4.128   1.696 -0.1087  3.1854 -1.9579
  154DOPC   H6S21170   1.442   4.226   1.824  2.7663  1.0417 -0.0184
  154DOPC   C2721171   1.524   4.031   1.815  0.4185  0.0022 -0.1444
  154DOPC   H7R21172   1.612   4.060   1.876  1.0729 -1.8710 -0.1332
  154DOPC   H7S21173   1.550   3.957   1.736  0.1221  0.6726 -0.8797
  154DOPC   C2821174   1.421   3.956   1.893 -0.4368 -0.2835 -0.5276
  154DOPC   H8R21175   1.461   3.861   1.934 -0.5739  1.4398  4.2640
  154DOPC   H8S21176   1.343   3.934   1.816  1.0091 -3.1663 -1.3020
  154DOPC   C2921177   1.366   4.038   2.003  0.3005 -0.3535 -0.4806
  154DOPC   H9R21178   1.288   4.111   1.975 -2.1143 -1.9327  1.6492
  154DOPC  C21021179   1.406   4.053   2.131  0.3881  0.1268  0.1466
  154DOPC  H10R21180   1.346   4.126   2.188 -0.0730  0.8489 -1.2311
  154DOPC  C21121181   1.521   3.981   2.196 -0.4398 -0.3741  0.0061
  154DOPC  H11R21182   1.561   3.897   2.135  0.8759  0.1576  0.0897
  154DOPC  H11S21183   1.477   3.937   2.288 -0.9178  0.7162  0.3208
  154DOPC  C21221184   1.616   4.093   2.228  0.2593 -0.3884  0.8898
  154DOPC  H12R21185   1.568   4.169   2.293 -2.4865 -1.3802  0.1724
  154DOPC  H12S21186   1.652   4.147   2.138 -0.4138  0.3115  1.0272
  154DOPC  C21321187   1.737   4.040   2.297 -0.4726  0.3240  0.1027
  154DOPC  H13R21188   1.767   3.943   2.251  0.0273 -0.7574  2.5719
  154DOPC  H13S21189   1.708   3.993   2.393 -0.0552 -1.7143 -0.7114
  154DOPC  C21421190   1.868   4.128   2.310 -0.1718  0.5058 -0.2106
  154DOPC  H14R21191   1.899   4.143   2.205  0.1550  0.8450 -0.0647
  154DOPC  H14S21192   1.947   4.070   2.362  0.4254  1.4871 -0.0027
  154DOPC  C21521193   1.845   4.267   2.369  0.0178 -0.3293  0.2699
  154DOPC  H15R21194   1.759   4.325   2.330  0.4776  0.7509  0.8147
  154DOPC  H15S21195   1.936   4.331   2.360 -1.2251  1.8091  1.9870
  154DOPC  C21621196   1.812   4.270   2.524  0.3850 -0.2717  0.5540
  154DOPC  H16R21197   1.890   4.220   2.586  0.6916 -1.2788 -0.5977
  154DOPC  H16S21198   1.712   4.221   2.532 -0.6988  1.3648 -1.9084
  154DOPC  C21721199   1.791   4.411   2.583 -0.3118  0.5116  0.3622
  154DOPC  H17R21200   1.690   4.438   2.544 -0.0719  0.2223 -0.4706
  154DOPC  H17S21201   1.861   4.488   2.543 -0.3120 -0.2757 -1.2086
  154DOPC  C21821202   1.789   4.395   2.737 -0.1551  0.1553  0.4869
  154DOPC  H18R21203   1.741   4.307   2.785 -0.1149 -0.0450  0.1620
  154DOPC  H18S21204   1.746   4.489   2.779  0.4832 -0.2045  1.9871
  154DOPC  H18T21205   1.894   4.401   2.772  0.2021  0.9150 -0.6650
  154DOPC   C3321206   1.208   5.235   2.071  0.4370  0.1582 -0.2606
  154DOPC   H3X21207   1.137   5.252   1.987 -0.0427 -0.3447  0.0415
  154DOPC   H3Y21208   1.213   5.331   2.126 -4.4961 -0.0266  0.9872
  154DOPC   C3421209   1.129   5.146   2.166 -1.1145  0.3036  0.2407
  154DOPC   H4X21210   1.191   5.134   2.258 -1.5308 -2.8314  0.1940
  154DOPC   H4Y21211   1.113   5.045   2.124  0.0073  0.1677  0.1133
  154DOPC   C3521212   0.999   5.215   2.197  0.0380  0.7274  0.7939
  154DOPC   H5X21213   0.929   5.213   2.111  2.4856 -1.5371 -1.2954
  154DOPC   H5Y21214   1.019   5.321   2.224  0.8938  0.6796  0.3844
  154DOPC   C3621215   0.921   5.147   2.311  0.1841  0.6353  0.5200
  154DOPC   H6X21216   0.899   5.040   2.292 -0.3841  0.8225  0.0851
  154DOPC   H6Y21217   0.984   5.145   2.402 -0.0930 -2.0064  0.7329
  154DOPC   C3721218   0.781   5.203   2.351  0.6636  0.3919 -0.2566
  154DOPC   H7X21219   0.795   5.302   2.400  0.5223 -0.5021  1.6793
  154DOPC   H7Y21220   0.725   5.215   2.256  0.1560  0.3434  0.0329
  154DOPC   C3821221   0.696   5.121   2.447  0.4044 -0.4193  0.6314
  154DOPC   H8X21222   0.749   5.119   2.544  4.1701  0.9872 -1.1844
  154DOPC   H8Y21223   0.684   5.019   2.405 -0.7941 -0.7502  1.7108
  154DOPC   C3921224   0.555   5.181   2.452 -1.6458 -1.2906 -0.1709
  154DOPC   H9X21225   0.498   5.178   2.357 -1.1325  0.4228 -0.5675
  154DOPC  C31021226   0.491   5.229   2.561  0.2492  0.7328  0.6240
  154DOPC  H10X21227   0.402   5.291   2.539  2.7380  3.7078 -2.0076
  154DOPC  C31121228   0.543   5.251   2.699 -0.7554 -0.1166  0.6141
  154DOPC  H11X21229   0.654   5.249   2.691 -0.8311 -1.0710 -0.4100
  154DOPC  H11Y21230   0.513   5.164   2.762 -2.0144  1.0423  1.6610
  154DOPC  C31221231   0.494   5.382   2.775 -0.5817  0.5016 -0.3638
  154DOPC  H12X21232   0.548   5.466   2.728  0.0141  0.4228  0.1572
  154DOPC  H12Y21233   0.531   5.369   2.879  2.3434 -1.7598 -1.5180
  154DOPC  C31321234   0.342   5.396   2.765 -0.0029  0.0122  0.0334
  154DOPC  H13X21235   0.311   5.479   2.833 -0.7395 -0.4147  0.2272
  154DOPC  H13Y21236   0.316   5.423   2.660  1.1897 -1.3896 -0.6524
  154DOPC  C31421237   0.259   5.271   2.801 -0.6445  0.3064 -0.2190
  154DOPC  H14X21238   0.252   5.194   2.722 -2.5633 -0.1690  0.3684
  154DOPC  H14Y21239   0.310   5.226   2.889 -2.8358 -0.4035  0.7590
  154DOPC  C31521240   0.123   5.320   2.860  0.6246  0.4887 -0.0509
  154DOPC  H15X21241   0.068   5.349   2.768  0.9706 -1.7173 -1.0309
  154DOPC  H15Y21242   0.131   5.399   2.937 -2.0389  0.6783  0.1415
  154DOPC  C31621243   0.043   5.201   2.919 -0.3982  0.4465  0.1031
  154DOPC  H16X21244   0.097   5.142   2.995  0.3928  0.5488 -0.3739
  154DOPC  H16Y21245   8.498   5.253   2.976 -0.0136  2.0987 -0.7874
  154DOPC  C31721246   8.528   5.102   2.812  0.0180  0.2398 -0.5389
  154DOPC  H17X21247   0.065   5.075   2.731 -0.0004  0.9722 -0.8067
  154DOPC  H17Y21248   8.504   5.009   2.866  1.6442  1.6541  2.9217
  154DOPC  C31821249   8.403   5.140   2.741  0.2456 -0.0947  0.3475
  154DOPC  H18X21250   8.338   5.210   2.798  1.2838  2.2918 -1.2811
  154DOPC  H18Y21251   8.430   5.200   2.651  0.1989 -0.1744  0.2801
  154DOPC  H18Z21252   8.334   5.057   2.716 -0.8719  1.4159 -1.9466
  155DOPC     N21253   7.806   3.200   1.492 -0.5941  0.4739 -0.2367
  155DOPC   C1221254   7.902   3.104   1.426 -0.1309  0.1493  0.1196
  155DOPC  H12A21255   7.843   3.053   1.351  0.5976  0.1731 -0.4819
  155DOPC  H12B21256   7.928   3.029   1.499 -1.0348 -1.9232 -1.5642
  155DOPC   C1321257   7.681   3.126   1.528 -0.6728 -0.2154 -0.4378
  155DOPC  H13A21258   7.711   3.060   1.608  1.5165  1.2250  0.0221
  155DOPC  H13B21259   7.596   3.189   1.546 -1.5115 -1.5877  0.6263
  155DOPC  H13C21260   7.653   3.057   1.449  5.1351 -3.8238  0.0147
  155DOPC   C1421261   7.762   3.312   1.409 -0.2043  0.0570  0.1159
  155DOPC  H14A21262   7.690   3.366   1.469 -0.5465 -0.7720  0.4711
  155DOPC  H14B21263   7.848   3.375   1.391  0.3982 -1.0426 -0.9798
  155DOPC  H14C21264   7.724   3.292   1.310  0.9060  2.1743 -0.8131
  155DOPC   C1521265   7.874   3.239   1.618  0.1952 -0.0858  0.4542
  155DOPC  H15A21266   7.825   3.317   1.674 -1.2866 -0.4350 -0.3077
  155DOPC  H15B21267   7.969   3.270   1.576 -0.0439  1.8238  1.2314
  155DOPC  H15C21268   7.873   3.150   1.680  0.4097  0.5825  1.4300
  155DOPC   C1121269   8.027   3.160   1.366 -0.6413  0.8190 -0.4299
  155DOPC  H11A21270   8.085   3.097   1.295  1.4066  1.9641  0.1347
  155DOPC  H11B21271   8.006   3.249   1.302  3.2989 -0.0852 -3.4048
  155DOPC     P21272   8.233   3.286   1.466  0.0947  0.1211  0.7832
  155DOPC   O1321273   8.198   3.419   1.401  0.1027  0.2719 -0.5095
  155DOPC   O1421274   8.338   3.208   1.395 -0.2288  0.0263 -0.5212
  155DOPC   O1221275   8.105   3.197   1.482  0.2492  0.3204 -0.0299
  155DOPC   O1121276   8.273   3.316   1.614 -0.2601 -0.1346  0.0424
  155DOPC    C121277   8.308   3.205   1.700  0.4739 -0.8077 -0.1005
  155DOPC    HA21278   8.396   3.153   1.658  1.6861 -0.2265  1.6063
  155DOPC    HB21279   8.223   3.134   1.713  0.1782 -0.6959 -1.3362
  155DOPC    C221280   8.333   3.265   1.845  0.7734  0.3004 -0.1084
  155DOPC    HS21281   8.337   3.181   1.918  2.5981  1.1377  0.8275
  155DOPC   O2121282   8.237   3.364   1.876  0.9247  0.7039  0.3144
  155DOPC   C2121283   8.106   3.335   1.875 -0.4956  0.2576 -0.1887
  155DOPC   O2221284   8.064   3.221   1.886  1.1610 -0.4748 -0.0385
  155DOPC   C2221285   8.030   3.464   1.875 -0.3390  0.1679 -0.7246
  155DOPC   H2R21286   7.997   3.478   1.770 -1.2922 -1.3906 -0.6713
  155DOPC   H2S21287   8.098   3.547   1.905  0.5135 -0.1292 -1.7994
  155DOPC    C321288   8.473   3.338   1.862  0.4139  0.2631  0.2061
  155DOPC    HX21289   8.472   3.421   1.788  3.6906 -0.1973 -0.5336
  155DOPC    HY21290   0.017   3.263   1.838  0.4629  0.4390 -0.1955
  155DOPC   O3121291   8.492   3.371   1.998  0.1254 -0.2943  0.6702
  155DOPC   C3121292   8.472   3.505   2.036 -0.6010  0.6535 -0.3212
  155DOPC   O3221293   8.434   3.591   1.960 -0.7212  0.2737 -0.4533
  155DOPC   C3221294   8.486   3.518   2.186 -0.0702  0.0981 -0.4999
  155DOPC   H2X21295   0.058   3.506   2.214 -0.7570 -1.0509  1.9496
  155DOPC   H2Y21296   8.452   3.619   2.216 -1.8863 -0.5864 -0.1059
  155DOPC   C2321297   7.906   3.472   1.975  0.4150  0.6232 -0.2666
  155DOPC   H3R21298   7.932   3.422   2.070  0.1834  2.4283  0.7909
  155DOPC   H3S21299   7.816   3.419   1.937 -0.2349  0.6048  1.2370
  155DOPC   C2421300   7.868   3.615   2.021  0.3645  0.2975  0.2391
  155DOPC   H4R21301   7.874   3.693   1.942  0.3890  0.4987  0.4352
  155DOPC   H4S21302   7.947   3.647   2.094  0.6318 -0.5179  0.3135
  155DOPC   C2521303   7.734   3.626   2.089 -0.6418  0.1228 -0.5067
  155DOPC   H5R21304   7.667   3.568   2.022  0.1159 -0.9357 -0.3917
  155DOPC   H5S21305   7.703   3.730   2.109  1.7175  1.0157 -1.2040
  155DOPC   C2621306   7.731   3.567   2.229 -0.1353 -0.2166  0.4985
  155DOPC   H6R21307   7.832   3.589   2.269 -1.1733 -0.4697  3.5088
  155DOPC   H6S21308   7.716   3.457   2.230  1.0872 -0.3995  0.5180
  155DOPC   C2721309   7.626   3.636   2.322 -0.4627 -0.7722  0.0708
  155DOPC   H7R21310   7.524   3.613   2.285  0.1682  0.7752 -2.9717
  155DOPC   H7S21311   7.638   3.746   2.314 -0.2328 -0.7663  0.4493
  155DOPC   C2821312   7.665   3.596   2.465 -0.7691 -0.2674  0.4327
  155DOPC   H8R21313   7.768   3.633   2.483 -0.7334 -1.0178  1.9503
  155DOPC   H8S21314   7.682   3.486   2.467  0.5663 -0.1329 -1.4785
  155DOPC   C2921315   7.573   3.639   2.574  0.7289  0.0036 -0.8107
  155DOPC   H9R21316   7.593   3.743   2.603  0.2694  1.1983 -4.2336
  155DOPC  C21021317   7.482   3.563   2.639  0.0148 -0.0002  0.5385
  155DOPC  H10R21318   7.418   3.614   2.713 -2.8553 -0.0276 -1.7346
  155DOPC  C21121319   7.440   3.417   2.624 -0.3955  0.0386 -0.3289
  155DOPC  H11R21320   7.525   3.355   2.589 -0.1348 -0.2502  0.7743
  155DOPC  H11S21321   7.362   3.410   2.546 -0.9728 -2.9559  0.3965
  155DOPC  C21221322   7.401   3.339   2.750 -0.1191  0.0075 -0.1437
  155DOPC  H12R21323   7.481   3.365   2.822  0.5117 -2.0533 -0.0470
  155DOPC  H12S21324   7.421   3.232   2.730 -1.0896 -0.2592  0.2883
  155DOPC  C21321325   7.252   3.362   2.787 -0.4381  0.6812 -0.3969
  155DOPC  H13R21326   7.205   3.299   2.708  2.7187 -0.8024 -1.2808
  155DOPC  H13S21327   7.220   3.468   2.774 -1.7931  0.5404  1.4358
  155DOPC  C21421328   7.208   3.326   2.931 -0.8405 -0.2424  0.3627
  155DOPC  H14R21329   7.105   3.365   2.945 -1.6151 -0.9601 -2.4796
  155DOPC  H14S21330   7.276   3.380   2.999 -0.6736  2.6299 -1.8723
  155DOPC  C21521331   7.216   3.174   2.957  0.0417  0.2527 -0.7048
  155DOPC  H15R21332   7.325   3.154   2.965  0.4501  2.0662 -1.3660
  155DOPC  H15S21333   7.179   3.117   2.869 -3.1430 -0.8065  1.1596
  155DOPC  C21621334   7.128   3.130   3.074 -0.2835  0.1325 -0.2174
  155DOPC  H16R21335   7.123   3.019   3.085 -0.6180 -0.0568 -1.9694
  155DOPC  H16S21336   7.021   3.157   3.066 -0.3105 -0.1380 -0.8733
  155DOPC  C21721337   7.197   3.175   3.203  0.0923 -0.4781 -0.3150
  155DOPC  H17R21338   7.221   3.284   3.201 -1.0112 -0.1985  0.7261
  155DOPC  H17S21339   7.291   3.117   3.215  0.6417  0.3051 -0.6775
  155DOPC  C21821340   7.113   3.151   3.331  0.4809 -0.0687 -0.1985
  155DOPC  H18R21341   7.012   3.191   3.310 -0.7949 -1.9528  1.8589
  155DOPC  H18S21342   7.149   3.202   3.423 -1.6642 -1.2850  1.3964
  155DOPC  H18T21343   7.094   3.043   3.352 -1.8613  0.5349  1.0837
  155DOPC   C3321344   8.403   3.409   2.259 -0.3627 -0.4269 -0.1229
  155DOPC   H3X21345   8.431   3.418   2.366 -0.1644  2.3827 -0.3251
  155DOPC   H3Y21346   8.417   3.306   2.221  2.6065 -0.4144  0.6572
  155DOPC   C3421347   8.246   3.418   2.251 -0.1890 -0.6196 -0.4326
  155DOPC   H4X21348   8.193   3.339   2.309 -1.9171  0.7138 -0.1024
  155DOPC   H4Y21349   8.225   3.412   2.142 -0.6071  1.3490 -0.5050
  155DOPC   C3521350   8.190   3.558   2.297 -0.5335  0.0112 -0.2940
  155DOPC   H5X21351   8.088   3.561   2.253 -0.8213  0.1877  0.3783
  155DOPC   H5Y21352   8.246   3.646   2.259  0.5445  0.0736  1.3146
  155DOPC   C3621353   8.176   3.579   2.450 -0.1258  0.0081  0.2476
  155DOPC   H6X21354   8.139   3.486   2.499 -1.8192 -1.1207 -2.9090
  155DOPC   H6Y21355   8.281   3.584   2.487  0.4566 -1.0740 -1.1780
  155DOPC   C3721356   8.081   3.695   2.491 -0.2926 -0.0441  0.0394
  155DOPC   H7X21357   7.995   3.706   2.421 -0.9181  1.8022  1.0296
  155DOPC   H7Y21358   8.036   3.677   2.591  0.8766 -3.2648  0.1047
  155DOPC   C3821359   8.163   3.829   2.517 -0.2365 -0.9581 -0.2387
  155DOPC   H8X21360   8.231   3.846   2.432  1.1867 -3.1245  0.3751
  155DOPC   H8Y21361   8.230   3.819   2.605  1.8884 -0.2857 -1.7121
  155DOPC   C3921362   8.063   3.942   2.545  0.7163  0.1659 -0.4146
  155DOPC   H9X21363   8.035   3.999   2.455  0.3326  2.5528  1.1275
  155DOPC  C31021364   7.990   3.952   2.654  0.1961  0.2612  0.3267
  155DOPC  H10X21365   7.920   4.035   2.672  1.8746  1.9852 -0.6948
  155DOPC  C31121366   7.993   3.868   2.781  1.0462  0.1878  0.3415
  155DOPC  H11X21367   7.987   3.936   2.868  1.7092 -0.6532  1.0579
  155DOPC  H11Y21368   8.073   3.793   2.793 -0.3175 -1.1666  1.3131
  155DOPC  C31221369   7.862   3.787   2.789  0.7392 -0.4077  0.0798
  155DOPC  H12X21370   7.863   3.721   2.700  1.7407  2.5401 -2.2473
  155DOPC  H12Y21371   7.770   3.849   2.781  1.5283  0.7759 -0.1513
  155DOPC  C31321372   7.862   3.709   2.920  0.5136 -0.7676 -0.2535
  155DOPC  H13X21373   7.959   3.658   2.936  0.8816  0.1776  0.6809
  155DOPC  H13Y21374   7.842   3.781   3.003 -0.3958 -1.0093 -0.2485
  155DOPC  C31421375   7.749   3.612   2.921 -1.0973  0.3544  0.3635
  155DOPC  H14X21376   7.654   3.659   2.956  0.9094  3.2867  2.3774
  155DOPC  H14Y21377   7.740   3.565   2.821 -1.3911  0.2134  0.4556
  155DOPC  C31521378   7.771   3.506   3.033  0.2017  0.1469 -0.5660
  155DOPC  H15X21379   7.845   3.426   3.012 -1.1333 -0.9203 -1.3738
  155DOPC  H15Y21380   7.672   3.455   3.027  0.2924 -0.0032 -0.7909
  155DOPC  C31621381   7.801   3.575   3.162  0.0024 -0.1574 -0.6196
  155DOPC  H16X21382   7.910   3.593   3.177 -0.3890  1.2971  0.6049
  155DOPC  H16Y21383   7.749   3.671   3.182 -0.3927  0.1551 -2.8826
  155DOPC  C31721384   7.768   3.489   3.287 -0.2845 -0.1716  0.2827
  155DOPC  H17X21385   7.666   3.451   3.267 -0.0380 -0.4634 -0.4592
  155DOPC  H17Y21386   7.830   3.397   3.286 -0.4697 -0.3828 -2.9580
  155DOPC  C31821387   7.764   3.558   3.424 -0.2571  0.2398  0.4061
  155DOPC  H18X21388   7.708   3.489   3.491  1.4106 -0.4199  1.1830
  155DOPC  H18Y21389   7.868   3.563   3.462  0.6171  0.3948 -1.9080
  155DOPC  H18Z21390   7.709   3.654   3.417 -0.0743  0.2317 -1.5910
  156DOPC     N21391   5.146   8.201   1.249 -0.3889 -0.5451 -0.6895
  156DOPC   C1221392   5.076   8.169   1.376  0.3156 -0.9350 -0.1629
  156DOPC  H12A21393   5.010   8.086   1.355  0.0119 -0.1424 -2.6892
  156DOPC  H12B21394   5.003   8.247   1.390  0.9225 -0.0541 -1.6169
  156DOPC   C1321395   5.274   8.132   1.234 -0.2219  0.1842  0.7057
  156DOPC  H13A21396   5.333   8.145   1.323 -0.8052  1.4374  0.9213
  156DOPC  H13B21397   5.286   8.026   1.217 -0.9149  0.4802 -2.0882
  156DOPC  H13C21398   5.335   8.179   1.158 -3.6857  2.0794 -1.1448
  156DOPC   C1421399   5.181   8.348   1.247 -0.7766 -0.2563  1.1205
  156DOPC  H14A21400   5.215   8.363   1.145 -1.0804 -1.1626  0.8766
  156DOPC  H14B21401   5.103   8.419   1.268  2.3554  2.8867  3.4043
  156DOPC  H14C21402   5.270   8.368   1.305 -1.5540 -1.1948  2.6984
  156DOPC   C1521403   5.062   8.177   1.129  0.4938 -0.3343 -0.3610
  156DOPC  H15A21404   5.027   8.075   1.126  1.6398 -0.7635  0.4866
  156DOPC  H15B21405   5.125   8.197   1.044  3.3521  0.4656  1.8145
  156DOPC  H15C21406   4.969   8.233   1.132 -0.7935 -2.3846  1.1201
  156DOPC   C1121407   5.158   8.141   1.502  0.2787  0.7189 -0.0802
  156DOPC  H11A21408   5.094   8.109   1.586  1.7577 -0.6865  0.5476
  156DOPC  H11B21409   5.212   8.048   1.477 -1.8187 -0.4063 -0.7135
  156DOPC     P21410   5.173   8.383   1.599 -0.0491 -0.0222 -0.1116
  156DOPC   O1321411   5.030   8.397   1.567 -0.2992 -0.0539 -0.3547
  156DOPC   O1421412   5.255   8.502   1.553 -0.1616  0.0977  0.1286
  156DOPC   O1221413   5.238   8.252   1.540 -0.4805  0.1211 -0.3934
  156DOPC   O1121414   5.198   8.357   1.755  0.0427 -0.0701 -0.6837
  156DOPC    C121415   5.194   8.217   1.802  0.4419 -0.1151  0.1586
  156DOPC    HA21416   5.283   8.163   1.763  0.3855  0.9393 -1.5218
  156DOPC    HB21417   5.099   8.164   1.782  0.2025  0.5701 -0.5517
  156DOPC    C221418   5.224   8.215   1.953 -0.5004  0.1393  0.0180
  156DOPC    HS21419   5.237   8.109   1.983 -1.8913  0.5143  2.1825
  156DOPC   O2121420   5.108   8.271   2.026 -0.0634 -0.1772 -0.5939
  156DOPC   C2121421   5.006   8.187   2.048  0.0024 -0.4956  0.2869
  156DOPC   O2221422   4.998   8.075   2.005 -0.1400 -0.3622  0.6015
  156DOPC   C2221423   4.901   8.253   2.138 -0.2065  1.2674  0.0991
  156DOPC   H2R21424   4.818   8.276   2.068 -0.3758 -2.4773 -1.1179
  156DOPC   H2S21425   4.944   8.341   2.190  0.3267  2.1858 -1.7908
  156DOPC    C321426   5.353   8.291   1.987 -0.7524  0.7963  0.6422
  156DOPC    HX21427   5.332   8.394   1.951  4.7406  0.9540 -3.3337
  156DOPC    HY21428   5.429   8.240   1.924 -3.0915 -4.4401  1.5154
  156DOPC   O3121429   5.387   8.286   2.130  0.3403  0.4996  0.0104
  156DOPC   C3121430   5.374   8.398   2.197 -0.5788  0.3227 -0.9679
  156DOPC   O3221431   5.350   8.505   2.154  0.2923 -0.5254 -0.1259
  156DOPC   C3221432   5.407   8.378   2.345 -0.6392 -0.0199 -0.8553
  156DOPC   H2X21433   5.447   8.276   2.360 -2.0642 -0.4711  0.1552
  156DOPC   H2Y21434   5.486   8.449   2.376 -0.0320 -0.7962 -0.6060
  156DOPC   C2321435   4.842   8.153   2.247 -0.2330 -0.4132 -0.5888
  156DOPC   H3R21436   4.831   8.056   2.194  2.7427 -0.0347 -2.0972
  156DOPC   H3S21437   4.739   8.193   2.261 -0.7192 -1.6911 -0.3617
  156DOPC   C2421438   4.911   8.144   2.382 -0.1919  0.1657 -0.3918
  156DOPC   H4R21439   4.843   8.083   2.446  1.2426 -1.0508  0.0373
  156DOPC   H4S21440   4.916   8.238   2.441  2.0953 -1.1423  1.6860
  156DOPC   C2521441   5.041   8.063   2.370 -0.1508 -0.3518  0.0372
  156DOPC   H5R21442   5.107   8.133   2.316  0.7883  1.1308  2.8733
  156DOPC   H5S21443   5.028   7.972   2.308 -0.8454 -0.0100 -0.3347
  156DOPC   C2621444   5.110   8.027   2.500 -0.0489 -0.0572 -0.4710
  156DOPC   H6R21445   5.057   7.933   2.528  1.7812 -0.6275  1.3691
  156DOPC   H6S21446   5.096   8.104   2.579  0.5469  0.3459 -0.7581
  156DOPC   C2721447   5.256   7.988   2.471 -0.2798 -0.1385  0.5413
  156DOPC   H7R21448   5.308   8.075   2.425  1.5491 -0.6685  1.5158
  156DOPC   H7S21449   5.258   7.908   2.394 -0.1495  0.8798 -0.5435
  156DOPC   C2821450   5.334   7.947   2.601 -0.0486  0.1919 -0.8104
  156DOPC   H8R21451   5.416   7.879   2.568 -0.1369 -0.2726 -0.1018
  156DOPC   H8S21452   5.272   7.879   2.663  0.7903 -0.6365 -0.8512
  156DOPC   C2921453   5.405   8.048   2.698 -0.2666 -0.4780  0.4995
  156DOPC   H9R21454   5.475   8.117   2.649  0.6415 -1.4904  0.3359
  156DOPC  C21021455   5.384   8.069   2.829 -0.4079  0.0095  0.2673
  156DOPC  H10R21456   5.445   8.145   2.878  1.4420 -3.3441  3.6834
  156DOPC  C21121457   5.295   7.987   2.916 -0.3645  0.5358 -0.5944
  156DOPC  H11R21458   5.207   7.953   2.858  0.0936  2.6384 -2.6788
  156DOPC  H11S21459   5.257   8.047   3.002 -1.8980 -1.0517 -0.0915
  156DOPC  C21221460   5.377   7.869   2.963 -0.7572  0.1493  0.4922
  156DOPC  H12R21461   5.483   7.902   2.971 -0.8178  0.4016  0.2444
  156DOPC  H12S21462   5.382   7.793   2.882  0.7167  1.0125 -0.2703
  156DOPC  C21321463   5.323   7.806   3.095  0.0098 -0.3878  0.0130
  156DOPC  H13R21464   5.215   7.781   3.086 -0.4282  0.1184  2.8478
  156DOPC  H13S21465   5.341   7.877   3.178  3.2895 -0.0335 -0.8656
  156DOPC  C21421466   5.420   7.699   3.148 -0.8459  0.6536 -0.1542
  156DOPC  H14R21467   5.523   7.741   3.143  0.5062 -2.3265  0.5359
  156DOPC  H14S21468   5.402   7.604   3.092 -2.6559  1.0075 -0.2428
  156DOPC  C21521469   5.398   7.667   3.297 -0.2655 -0.4313 -0.4258
  156DOPC  H15R21470   5.290   7.650   3.313 -0.2330 -0.4817 -0.2504
  156DOPC  H15S21471   5.440   7.750   3.358 -2.0261 -0.6030  1.1053
  156DOPC  C21621472   5.479   7.541   3.331  0.2791  0.1818 -0.0712
  156DOPC  H16R21473   5.574   7.543   3.274 -0.8002  2.4934 -1.9837
  156DOPC  H16S21474   5.422   7.462   3.278  1.7986 -1.5459  0.7312
  156DOPC  C21721475   5.488   7.502   3.480 -0.7455  0.6097  0.7767
  156DOPC  H17R21476   5.527   7.398   3.480 -1.3458  0.3763  1.5310
  156DOPC  H17S21477   5.388   7.494   3.529 -0.7721 -2.1746  0.4750
  156DOPC  C21821478   5.589   7.587   3.555 -0.4770  0.8816  0.6020
  156DOPC  H18R21479   5.587   7.570   3.665  3.1798  1.1299  0.8214
  156DOPC  H18S21480   5.573   7.695   3.534  0.6424  0.6824 -1.4051
  156DOPC  H18T21481   5.690   7.558   3.520 -2.0262 -0.8414 -2.8896
  156DOPC   C3321482   5.276   8.403   2.432 -0.1094 -0.0630 -0.7612
  156DOPC   H3X21483   5.218   8.310   2.416  0.3244 -0.5325  0.3097
  156DOPC   H3Y21484   5.217   8.483   2.381  0.9075  0.6473 -0.8578
  156DOPC   C3421485   5.305   8.416   2.582 -0.0995 -0.8040 -0.2987
  156DOPC   H4X21486   5.343   8.517   2.609 -2.9203  0.2117  0.2220
  156DOPC   H4Y21487   5.384   8.346   2.615  0.3989  0.7284  2.0348
  156DOPC   C3521488   5.174   8.409   2.664  0.5868 -0.5752 -0.6807
  156DOPC   H5X21489   5.139   8.303   2.658  0.3056 -0.4448 -1.5265
  156DOPC   H5Y21490   5.090   8.465   2.618  1.5141  0.1069 -1.5922
  156DOPC   C3621491   5.186   8.450   2.805 -0.0952  0.0111  0.5238
  156DOPC   H6X21492   5.286   8.421   2.845 -0.2889  1.1509  1.9357
  156DOPC   H6Y21493   5.202   0.025   2.815  1.3390 -0.1752  0.5915
  156DOPC   C3721494   5.072   8.407   2.893  1.2216  0.5008 -0.1202
  156DOPC   H7X21495   4.977   8.428   2.839  1.0127 -0.3859 -0.1100
  156DOPC   H7Y21496   5.076   8.298   2.911 -1.9359  0.3127  0.0257
  156DOPC   C3821497   5.065   8.473   3.033  1.2273 -0.1109 -0.3338
  156DOPC   H8X21498   5.164   8.464   3.084  0.7001  1.7477  1.1524
  156DOPC   H8Y21499   4.995   8.409   3.091 -0.3331  0.3419 -1.6521
  156DOPC   C3921500   5.006   0.075   3.038 -0.0875 -0.2131 -0.1514
  156DOPC   H9X21501   4.943   0.095   2.950 -1.5220  0.9778  1.0810
  156DOPC  C31021502   4.998   0.169   3.138  0.4832 -0.4748 -0.6457
  156DOPC  H10X21503   4.955   0.268   3.119  1.6156 -0.3263 -2.8511
  156DOPC  C31121504   5.056   0.146   3.278  0.5603 -0.1912  0.4947
  156DOPC  H11X21505   5.087   0.039   3.288  1.0601 -0.2161 -1.0577
  156DOPC  H11Y21506   4.970   0.161   3.347  0.2890  0.1387  0.0793
  156DOPC  C31221507   5.170   0.236   3.328 -0.3970  0.3706  0.5265
  156DOPC  H12X21508   5.254   0.231   3.255  0.1629  0.4993  1.1501
  156DOPC  H12Y21509   5.214   0.179   3.413  0.7780 -0.2711 -0.4797
  156DOPC  C31321510   5.120   0.372   3.358  0.2621 -0.2819  0.3016
  156DOPC  H13X21511   5.053   0.405   3.275  1.2827 -0.5960 -0.6783
  156DOPC  H13Y21512   5.066   0.367   3.455 -0.0256 -0.0449  0.1569
  156DOPC  C31421513   5.231   0.481   3.379 -0.0860  0.2181  0.2383
  156DOPC  H14X21514   5.197   0.557   3.452  2.4642  0.2221  1.5515
  156DOPC  H14Y21515   5.331   0.442   3.408  0.8235  0.9926 -1.6731
  156DOPC  C31521516   5.263   0.550   3.245  0.1171  0.7951  0.3523
  156DOPC  H15X21517   5.172   0.595   3.200 -0.2868 -0.1102  0.2596
  156DOPC  H15Y21518   5.289   0.465   3.178 -2.5976 -1.2518  1.7438
  156DOPC  C31621519   5.384   0.644   3.257 -0.5962  0.2473  0.3013
  156DOPC  H16X21520   5.468   0.584   3.299 -1.4628  0.2730  2.1891
  156DOPC  H16Y21521   5.421   0.682   3.159  2.2471 -1.1531  0.7092
  156DOPC  C31721522   5.349   0.766   3.342  0.6484 -0.1797 -0.1204
  156DOPC  H17X21523   5.247   0.800   3.318  0.7595 -0.2015 -0.6302
  156DOPC  H17Y21524   5.338   0.728   3.446  2.2819  2.8179  1.2799
  156DOPC  C31821525   5.449   0.880   3.333 -0.3867  1.3459 -0.1881
  156DOPC  H18X21526   5.407   0.960   3.398 -1.4604 -2.0194  3.7011
  156DOPC  H18Y21527   5.548   0.857   3.378 -1.3320  0.2962  1.4679
  156DOPC  H18Z21528   5.457   0.913   3.227 -2.4234  0.6982 -0.5847
  157DOPC     N21529   5.966   3.489   1.498 -0.2094 -0.1655 -0.4634
  157DOPC   C1221530   5.928   3.387   1.605 -0.4985 -0.0450 -0.1121
  157DOPC  H12A21531   5.944   3.436   1.700 -2.2254 -0.2202  0.3008
  157DOPC  H12B21532   5.997   3.305   1.593  0.1432  0.5119 -0.2971
  157DOPC   C1321533   5.863   3.597   1.497  0.5722 -0.4471 -0.1106
  157DOPC  H13A21534   5.837   3.626   1.396  1.8728  1.2321 -0.0103
  157DOPC  H13B21535   5.768   3.564   1.536 -0.1583  0.2810 -1.2240
  157DOPC  H13C21536   5.903   3.680   1.553  1.6286 -2.1394  1.7950
  157DOPC   C1421537   5.965   3.417   1.367 -0.6487  0.0328 -0.6376
  157DOPC  H14A21538   6.055   3.358   1.372  0.6601  1.7197 -2.6501
  157DOPC  H14B21539   5.875   3.359   1.350 -0.1592 -0.1767 -2.8873
  157DOPC  H14C21540   5.970   3.489   1.287 -0.2732  1.6397  0.7869
  157DOPC   C1521541   6.104   3.549   1.515  0.3646 -0.1009 -0.6826
  157DOPC  H15A21542   6.181   3.474   1.522  2.0553  1.5403 -0.9367
  157DOPC  H15B21543   6.111   3.578   1.619 -1.3060  1.5045 -0.9753
  157DOPC  H15C21544   6.123   3.630   1.447  0.1367 -0.7577 -1.5479
  157DOPC   C1121545   5.781   3.327   1.603 -0.7814 -0.1019  0.2955
  157DOPC  H11A21546   5.772   3.278   1.504  2.1250 -0.5641  0.1494
  157DOPC  H11B21547   5.782   3.239   1.671  2.8500  0.5808  1.3636
  157DOPC     P21548   5.652   3.458   1.783 -0.6435  0.3939 -0.1766
  157DOPC   O1321549   5.532   3.544   1.800 -0.3614 -0.4111  0.5073
  157DOPC   O1421550   5.783   3.515   1.829 -0.0139  0.1469  0.1422
  157DOPC   O1221551   5.680   3.419   1.633  0.4899 -0.0961 -0.6531
  157DOPC   O1121552   5.630   3.309   1.843  0.0265 -0.2380  0.3749
  157DOPC    C121553   5.556   3.309   1.967 -0.3752  0.5516 -1.1672
  157DOPC    HA21554   5.519   3.207   1.991 -0.9464  1.3795  1.9413
  157DOPC    HB21555   5.468   3.377   1.971 -0.2599  0.7289 -1.6285
  157DOPC    C221556   5.642   3.337   2.097 -0.0544  0.0898  0.7872
  157DOPC    HS21557   5.661   3.446   2.087 -0.3504  0.0816  0.1396
  157DOPC   O2121558   5.760   3.255   2.083 -0.1063 -0.6189  0.0170
  157DOPC   C2121559   5.870   3.315   2.133 -1.0589  0.0071 -0.0255
  157DOPC   O2221560   5.875   3.430   2.171 -0.0089 -0.1158 -0.1856
  157DOPC   C2221561   5.989   3.219   2.118  1.0368  0.0920  0.1478
  157DOPC   H2R21562   6.014   3.221   2.010  1.2340  1.2901  0.2000
  157DOPC   H2S21563   5.960   3.116   2.147  2.2250  0.0943  1.4324
  157DOPC    C321564   5.570   3.316   2.232 -0.3347 -0.4010 -0.2781
  157DOPC    HX21565   5.533   3.212   2.246 -0.2258 -0.6889 -1.9303
  157DOPC    HY21566   5.475   3.373   2.225 -1.1470 -1.8703 -2.2210
  157DOPC   O3121567   5.648   3.343   2.349  0.3009  0.3511  0.1817
  157DOPC   C3121568   5.649   3.475   2.388 -0.8200 -0.6224 -0.6496
  157DOPC   O3221569   5.579   3.560   2.342 -0.8579  0.7754 -0.1400
  157DOPC   C3221570   5.777   3.503   2.486  0.4728  0.1207  0.3919
  157DOPC   H2X21571   5.803   3.410   2.541 -1.2435 -0.1029  0.9130
  157DOPC   H2Y21572   5.858   3.529   2.415  0.9697 -1.6439  0.2481
  157DOPC   C2321573   6.112   3.264   2.209 -0.3555  0.4683  0.6200
  157DOPC   H3R21574   6.140   3.370   2.191  2.9560 -0.5897 -1.3068
  157DOPC   H3S21575   6.187   3.198   2.161 -1.0337 -0.0738  0.2869
  157DOPC   C2421576   6.102   3.242   2.355  0.8874 -0.3389 -0.4921
  157DOPC   H4R21577   6.096   3.132   2.372 -1.3088  0.1095  2.4066
  157DOPC   H4S21578   6.006   3.286   2.387  1.6791  0.8285  0.3343
  157DOPC   C2521579   6.213   3.308   2.433  0.1262  0.7896  0.1186
  157DOPC   H5R21580   6.232   3.415   2.410  0.6310  0.6991  0.1156
  157DOPC   H5S21581   6.313   3.265   2.413  0.6991  1.4987  1.3043
  157DOPC   C2621582   6.193   3.295   2.587 -0.7962  0.7820  0.2365
  157DOPC   H6R21583   6.170   3.187   2.606 -1.8747  0.3400 -2.9750
  157DOPC   H6S21584   6.108   3.361   2.612 -0.4420  1.6159 -0.6995
  157DOPC   C2721585   6.311   3.336   2.677 -0.5945 -0.0780 -0.3306
  157DOPC   H7R21586   6.316   3.447   2.680  1.3281 -0.0895 -1.2320
  157DOPC   H7S21587   6.407   3.299   2.634 -0.0975  0.1646  0.5597
  157DOPC   C2821588   6.292   3.293   2.821 -0.3706  0.1229  0.3552
  157DOPC   H8R21589   6.239   3.196   2.829  0.3835 -0.2426  1.1370
  157DOPC   H8S21590   6.236   3.369   2.879 -2.6065 -2.5565  1.9281
  157DOPC   C2921591   6.424   3.281   2.896  0.5599  0.5118  0.7256
  157DOPC   H9R21592   6.447   3.176   2.922  0.9391 -0.3965 -2.7605
  157DOPC  C21021593   6.502   3.380   2.940  0.3111  0.2827  0.3837
  157DOPC  H10R21594   6.596   3.352   2.991  0.8267  2.8713  0.9705
  157DOPC  C21121595   6.506   3.526   2.896 -0.3870  0.1637  0.4786
  157DOPC  H11R21596   6.511   3.591   2.986 -1.1985 -1.1786  1.5423
  157DOPC  H11S21597   6.409   3.542   2.845 -1.4367 -1.4860  1.8130
  157DOPC  C21221598   6.610   3.552   2.783  0.3037 -0.6172 -0.4401
  157DOPC  H12R21599   6.586   3.481   2.701  1.1585 -0.0371 -1.2315
  157DOPC  H12S21600   6.714   3.540   2.820  0.2590  2.2491  0.9194
  157DOPC  C21321601   6.609   3.696   2.736  0.1702  0.0734  0.0111
  157DOPC  H13R21602   6.674   3.761   2.799  1.5907 -0.5862 -0.7065
  157DOPC  H13S21603   6.506   3.736   2.727  0.3527  0.5682  0.0802
  157DOPC  C21421604   6.659   3.711   2.590 -0.5115 -0.5775  0.5777
  157DOPC  H14R21605   6.591   3.654   2.522  0.5217 -2.2134  0.8759
  157DOPC  H14S21606   6.761   3.672   2.573  0.1044  1.4303 -0.8196
  157DOPC  C21521607   6.668   3.857   2.538  0.3441  0.2585  0.9497
  157DOPC  H15R21608   6.567   3.901   2.553 -0.7108 -1.7686  0.0365
  157DOPC  H15S21609   6.676   3.856   2.427  1.1372  0.5630  0.9968
  157DOPC  C21621610   6.790   3.929   2.603  0.1229  0.1977 -0.0531
  157DOPC  H16R21611   6.889   3.890   2.572 -0.1374  1.0177 -2.0889
  157DOPC  H16S21612   6.776   3.908   2.712 -1.6803 -2.1136 -0.6499
  157DOPC  C21721613   6.798   4.085   2.589  0.6504  0.0726 -0.4054
  157DOPC  H17R21614   6.828   4.115   2.487  0.6917 -0.4312 -0.5411
  157DOPC  H17S21615   6.861   4.131   2.668  1.6323  0.0328 -1.1509
  157DOPC  C21821616   6.662   4.147   2.613 -0.5986  0.1512  0.2273
  157DOPC  H18R21617   6.600   4.118   2.526  3.0951 -2.3173 -1.8433
  157DOPC  H18S21618   6.676   4.257   2.611  2.1527 -0.1063  0.7446
  157DOPC  H18T21619   6.621   4.112   2.710 -0.2262 -1.4658 -0.1719
  157DOPC   C3321620   5.762   3.613   2.597  0.0137  0.7332  0.0611
  157DOPC   H3X21621   5.751   3.715   2.556  1.3835  0.5186 -0.9277
  157DOPC   H3Y21622   5.860   3.601   2.648  1.0540  0.0579 -1.9549
  157DOPC   C3421623   5.650   3.584   2.708  0.0371  0.2295  0.4067
  157DOPC   H4X21624   5.662   3.478   2.738 -0.5185  0.0899  0.1513
  157DOPC   H4Y21625   5.550   3.588   2.658  0.6398 -2.9752 -1.3485
  157DOPC   C3521626   5.644   3.678   2.830  0.2705 -0.7418  0.1667
  157DOPC   H5X21627   5.633   3.782   2.795  0.1161 -0.6027  0.6208
  157DOPC   H5Y21628   5.733   3.661   2.895  1.2319 -2.2072 -1.4302
  157DOPC   C3621629   5.520   3.646   2.916 -0.9133 -0.4314  0.4903
  157DOPC   H6X21630   5.434   3.655   2.846  0.8063 -2.3360 -2.0472
  157DOPC   H6Y21631   5.524   3.540   2.949 -0.4601 -0.6325 -0.1874
  157DOPC   C3721632   5.494   3.740   3.033 -0.0317  0.0527 -0.4826
  157DOPC   H7X21633   5.473   3.836   2.981  2.0699 -0.9342 -3.3950
  157DOPC   H7Y21634   5.407   3.700   3.089 -0.1062 -0.0602 -0.6788
  157DOPC   C3821635   5.611   3.759   3.137 -0.5601  0.1180  0.5027
  157DOPC   H8X21636   5.686   3.830   3.094 -0.0421  0.8297  2.4907
  157DOPC   H8Y21637   5.651   3.656   3.137  1.7785  0.9298 -1.1634
  157DOPC   C3921638   5.577   3.790   3.280  1.3399 -0.2020  0.6039
  157DOPC   H9X21639   5.476   3.833   3.288  1.7016  0.6942  0.5592
  157DOPC  C31021640   5.633   3.746   3.391 -0.0626  0.0758 -0.3244
  157DOPC  H10X21641   5.610   3.784   3.492 -0.9504  0.5909 -0.7077
  157DOPC  C31121642   5.752   3.659   3.383 -0.4698  1.0487 -0.0028
  157DOPC  H11X21643   5.833   3.667   3.459  0.4129  4.2233 -1.1342
  157DOPC  H11Y21644   5.815   3.684   3.295 -1.5294 -0.2637 -1.1808
  157DOPC  C31221645   5.710   3.508   3.384  0.9169  0.4319  0.3435
  157DOPC  H12X21646   5.646   3.492   3.294  1.0651  0.0100  0.3113
  157DOPC  H12Y21647   5.636   3.481   3.463 -0.8403  0.0531 -1.3510
  157DOPC  C31321648   5.815   3.414   3.353  0.3273 -0.4970  0.0318
  157DOPC  H13X21649   5.807   3.381   3.247  0.8362  0.1856 -0.2266
  157DOPC  H13Y21650   5.914   3.466   3.355 -0.9307  2.0513 -0.2669
  157DOPC  C31421651   5.827   3.296   3.439  0.9024  0.8005  0.1949
  157DOPC  H14X21652   5.731   3.240   3.441  0.1726  1.9970 -0.2170
  157DOPC  H14Y21653   5.898   3.218   3.404  0.4491 -0.8687  2.7398
  157DOPC  C31521654   5.877   3.320   3.576 -0.1386 -0.5497 -0.8846
  157DOPC  H15X21655   5.956   3.398   3.573 -0.3481 -0.2587  0.3390
  157DOPC  H15Y21656   5.934   3.233   3.617  0.9823  1.5309  2.3842
  157DOPC  C31621657   5.764   3.355   3.674 -0.3984 -0.1372  0.0062
  157DOPC  H16X21658   5.738   3.462   3.656 -0.3991  0.2182  1.9421
  157DOPC  H16Y21659   5.671   3.294   3.670 -1.6985  1.8104 -1.0632
  157DOPC  C31721660   5.796   3.323   3.818  0.0371  0.5780  0.2529
  157DOPC  H17X21661   5.896   3.355   3.857  0.8451 -0.4710 -0.8858
  157DOPC  H17Y21662   5.736   3.394   3.879  1.6000  1.1350  1.2248
  157DOPC  C31821663   5.763   3.175   3.863 -0.0345  0.6085 -0.0492
  157DOPC  H18X21664   5.803   3.103   3.789  1.5373  0.7291  0.6316
  157DOPC  H18Y21665   5.798   3.157   3.968  2.9517  0.9145 -0.8909
  157DOPC  H18Z21666   5.654   3.158   3.868  0.1647 -0.5009  1.6598
  158DOPC     N21667   3.707   2.863   1.756  1.1684 -0.1835  0.2203
  158DOPC   C1221668   3.824   2.756   1.756 -0.0439  0.1842  0.0166
  158DOPC  H12A21669   3.919   2.805   1.770 -0.6333  1.0077  1.3646
  158DOPC  H12B21670   3.824   2.715   1.656 -1.5119 -0.3917  0.2203
  158DOPC   C1321671   3.733   2.967   1.650 -0.6618 -0.4691 -0.2689
  158DOPC  H13A21672   3.832   3.009   1.657 -0.7213 -0.4856  0.9385
  158DOPC  H13B21673   3.734   2.921   1.553  2.8128 -0.7530 -0.2131
  158DOPC  H13C21674   3.665   3.051   1.645 -1.3653 -0.9605  0.6520
  158DOPC   C1421675   3.692   2.926   1.883 -0.0942  0.3190  0.2161
  158DOPC  H14A21676   3.684   2.863   1.970  4.3268 -0.5670  0.1852
  158DOPC  H14B21677   3.771   2.992   1.914 -0.7404 -0.0451  2.8428
  158DOPC  H14C21678   3.608   2.990   1.860 -0.7052 -0.9574 -1.2715
  158DOPC   C1521679   3.575   2.801   1.722  0.7861  0.6400  0.1186
  158DOPC  H15A21680   3.574   2.764   1.621  0.0949 -0.1897  0.4208
  158DOPC  H15B21681   3.498   2.876   1.726 -0.7602 -0.9007  0.7281
  158DOPC  H15C21682   3.550   2.718   1.786 -1.4122  2.5546  1.9107
  158DOPC   C1121683   3.820   2.645   1.866 -0.0917  0.2701  0.9370
  158DOPC  H11A21684   3.919   2.595   1.870 -1.0027 -1.7740 -0.2775
  158DOPC  H11B21685   3.814   2.699   1.963 -2.1269  0.5885  0.6769
  158DOPC     P21686   3.727   2.445   1.741 -0.0298 -0.1130 -0.2746
  158DOPC   O1321687   3.821   2.489   1.635  0.6138  0.0914  0.3693
  158DOPC   O1421688   3.598   2.387   1.698 -0.6241  0.3830 -0.1480
  158DOPC   O1221689   3.704   2.569   1.838  0.1555 -0.0603 -0.5549
  158DOPC   O1121690   3.805   2.349   1.841 -0.2137 -0.2769  0.4221
  158DOPC    C121691   3.739   2.262   1.937  0.9134  0.3577 -0.2368
  158DOPC    HA21692   3.808   2.182   1.971  0.1225 -0.8375 -1.3692
  158DOPC    HB21693   3.657   2.209   1.885  0.5345  2.2070 -1.6366
  158DOPC    C221694   3.694   2.344   2.063 -0.2296  0.0382 -0.2353
  158DOPC    HS21695   3.642   2.435   2.026 -2.6151 -1.2230 -0.1421
  158DOPC   O2121696   3.821   2.371   2.121  0.5496 -0.1540 -0.5553
  158DOPC   C2121697   3.839   2.480   2.189  0.2747  0.0496 -0.6447
  158DOPC   O2221698   3.759   2.577   2.202  0.5513  0.4401 -0.1249
  158DOPC   C2221699   3.965   2.468   2.264 -0.1734  0.6671  0.6153
  158DOPC   H2R21700   4.041   2.536   2.220  0.7750 -2.2496 -2.7694
  158DOPC   H2S21701   4.004   2.365   2.249 -0.3688  0.7832 -0.8685
  158DOPC    C321702   3.597   2.274   2.161 -0.3559 -0.8094  0.3938
  158DOPC    HX21703   3.640   2.172   2.176  2.0560 -0.2745 -2.0486
  158DOPC    HY21704   3.502   2.268   2.104 -1.4065 -1.0492  2.1048
  158DOPC   O3121705   3.573   2.337   2.284 -0.2104  0.3575 -0.3619
  158DOPC   C3121706   3.479   2.428   2.291  0.3296 -0.3390  0.3242
  158DOPC   O3221707   3.403   2.467   2.199  0.3895  0.4429 -0.1838
  158DOPC   C3221708   3.474   2.479   2.431  0.3994  0.1887 -0.1403
  158DOPC   H2X21709   3.386   2.423   2.470  0.8708 -0.9787 -0.6915
  158DOPC   H2Y21710   3.565   2.447   2.486  2.0699 -0.4034 -3.0531
  158DOPC   C2321711   3.942   2.501   2.412  0.0357 -0.5292  0.0755
  158DOPC   H3R21712   3.869   2.428   2.454 -0.5516 -0.6679 -1.1649
  158DOPC   H3S21713   3.892   2.600   2.421 -0.3924 -0.8292  1.3030
  158DOPC   C2421714   4.062   2.493   2.505  0.3205  0.5105 -0.5433
  158DOPC   H4R21715   4.144   2.552   2.459 -0.4280 -0.5486 -3.4579
  158DOPC   H4S21716   4.097   2.388   2.518  0.8472  0.6552 -0.7573
  158DOPC   C2521717   4.023   2.548   2.641 -0.2428  0.0896 -0.4146
  158DOPC   H5R21718   3.994   2.470   2.715 -1.2594  1.0848  0.2716
  158DOPC   H5S21719   3.943   2.623   2.629 -0.2567 -0.1957 -2.2691
  158DOPC   C2621720   4.140   2.625   2.702 -0.6413  0.3632  0.0151
  158DOPC   H6R21721   4.119   2.691   2.789  1.0269 -1.0225  1.5807
  158DOPC   H6S21722   4.192   2.686   2.626  0.4303  0.1220  0.5254
  158DOPC   C2721723   4.259   2.531   2.748  0.3406 -0.3688  0.2836
  158DOPC   H7R21724   4.354   2.585   2.726  0.0009 -0.7437 -2.3254
  158DOPC   H7S21725   4.265   2.444   2.680  0.4489 -2.3963  2.7176
  158DOPC   C2821726   4.265   2.492   2.896  0.2031  0.1266  0.2695
  158DOPC   H8R21727   4.329   2.402   2.910  1.1565  0.9316  1.2075
  158DOPC   H8S21728   4.160   2.467   2.923  0.0509 -0.1022 -0.5080
  158DOPC   C2921729   4.315   2.601   2.979  0.3835 -0.1837 -0.8867
  158DOPC   H9R21730   4.418   2.627   2.951  0.5431 -1.8670 -1.9618
  158DOPC  C21021731   4.260   2.658   3.089 -0.4961  0.2540 -0.6152
  158DOPC  H10R21732   4.317   2.742   3.131 -0.0010 -0.1371 -0.4997
  158DOPC  C21121733   4.132   2.618   3.155 -0.3574  0.1486 -0.7084
  158DOPC  H11R21734   4.092   2.529   3.103  2.3367 -1.8874  0.4997
  158DOPC  H11S21735   4.060   2.702   3.144  2.9210  3.2911 -0.3316
  158DOPC  C21221736   4.130   2.577   3.308 -0.1672  0.1056 -0.2172
  158DOPC  H12R21737   4.026   2.541   3.324 -0.6038  1.8250  1.1227
  158DOPC  H12S21738   4.159   2.660   3.376  0.5654 -0.9385  0.7718
  158DOPC  C21321739   4.218   2.464   3.334 -0.3122  0.9172  0.1139
  158DOPC  H13R21740   4.199   2.430   3.438 -0.1567  1.6681  0.3960
  158DOPC  H13S21741   4.324   2.499   3.330 -0.0266  0.2107  0.9844
  158DOPC  C21421742   4.188   2.338   3.241 -0.4626 -0.0530  0.2869
  158DOPC  H14R21743   4.217   2.358   3.135 -0.2494  0.0164  0.3563
  158DOPC  H14S21744   4.081   2.308   3.240 -0.0080 -1.8155  1.0468
  158DOPC  C21521745   4.262   2.214   3.296  0.6681 -0.8934  0.3011
  158DOPC  H15R21746   4.230   2.183   3.397  0.4169  0.4717  0.6521
  158DOPC  H15S21747   4.371   2.230   3.284  0.3186  0.3383 -1.7895
  158DOPC  C21621748   4.222   2.088   3.224  0.5523 -0.2287 -0.2137
  158DOPC  H16R21749   4.245   2.084   3.116 -0.9533  0.6432 -0.6035
  158DOPC  H16S21750   4.111   2.086   3.231  0.6190 -0.3439  1.0526
  158DOPC  C21721751   4.278   1.955   3.293 -0.5500  0.1552 -0.2236
  158DOPC  H17R21752   4.226   1.866   3.252 -0.1294  0.7448 -2.1828
  158DOPC  H17S21753   4.266   1.966   3.403 -0.0400  1.6787 -0.2873
  158DOPC  C21821754   4.429   1.930   3.273 -0.4072  0.0195  0.1153
  158DOPC  H18R21755   4.450   1.882   3.175  2.2110  0.5196  0.3497
  158DOPC  H18S21756   4.472   1.856   3.344  0.8839 -0.0992 -0.7636
  158DOPC  H18T21757   4.481   2.028   3.275  1.2195 -0.8244  0.7395
  158DOPC   C3321758   3.462   2.630   2.424 -0.0702 -0.4501  0.5427
  158DOPC   H3X21759   3.408   2.651   2.330 -1.2692 -1.5768  0.9374
  158DOPC   H3Y21760   3.562   2.678   2.427 -0.2304 -0.1063  0.3613
  158DOPC   C3421761   3.378   2.692   2.533 -0.4032 -0.2284 -0.3852
  158DOPC   H4X21762   3.278   2.644   2.541 -0.2566 -0.2741  2.0404
  158DOPC   H4Y21763   3.359   2.798   2.507 -1.4784 -0.4664 -0.6247
  158DOPC   C3521764   3.442   2.689   2.678 -0.1514 -0.0778  0.4772
  158DOPC   H5X21765   3.545   2.729   2.663 -0.8738  1.7472  0.1864
  158DOPC   H5Y21766   3.472   2.586   2.709  0.0261 -0.9186 -2.2544
  158DOPC   C3621767   3.373   2.761   2.789  0.4390 -0.2577  0.0019
  158DOPC   H6X21768   3.299   2.689   2.831 -0.4547  0.4223 -0.3814
  158DOPC   H6Y21769   3.449   2.768   2.870 -0.1842  1.1184  0.4905
  158DOPC   C3721770   3.311   2.890   2.752  0.6529  0.1536 -0.3528
  158DOPC   H7X21771   3.392   2.944   2.699  0.0873  0.7355 -0.6281
  158DOPC   H7Y21772   3.231   2.878   2.676  1.1001  0.6313 -0.9108
  158DOPC   C3821773   3.258   2.970   2.878  1.0334  0.1410 -0.0886
  158DOPC   H8X21774   3.327   2.957   2.964 -2.2834 -1.6031  2.5601
  158DOPC   H8Y21775   3.171   2.921   2.927 -0.0280  1.2642 -0.7903
  158DOPC   C3921776   3.238   3.111   2.837 -0.2844  0.1186 -0.0639
  158DOPC   H9X21777   3.162   3.107   2.757  2.7512  1.4877 -3.2603
  158DOPC  C31021778   3.299   3.220   2.877 -0.6195  0.4873  0.9357
  158DOPC  H10X21779   3.269   3.318   2.836 -1.0406  0.1273  0.3597
  158DOPC  C31121780   3.391   3.224   2.999 -0.2105 -0.1171  0.5321
  158DOPC  H11X21781   3.404   3.122   3.041 -0.9105 -0.8818 -1.0202
  158DOPC  H11Y21782   3.344   3.285   3.078  2.7185  0.3708  2.0217
  158DOPC  C31221783   3.522   3.303   3.010 -0.2087 -0.3673  0.9125
  158DOPC  H12X21784   3.509   3.411   2.990  2.6810 -0.2302 -0.6944
  158DOPC  H12Y21785   3.606   3.265   2.948  0.5386  0.2256  1.5252
  158DOPC  C31321786   3.574   3.311   3.154  0.5523  0.2134 -0.2306
  158DOPC  H13X21787   3.494   3.357   3.217 -0.9206  0.2179 -2.0478
  158DOPC  H13Y21788   3.586   3.209   3.195  2.8686  0.1955 -0.8077
  158DOPC  C31421789   3.700   3.401   3.176  0.3590  0.3784 -0.5122
  158DOPC  H14X21790   3.754   3.399   3.079  0.5034 -2.2923 -0.4690
  158DOPC  H14Y21791   3.649   3.499   3.187 -3.6258 -1.3303 -2.0754
  158DOPC  C31521792   3.778   3.364   3.300  0.6371  0.4388  0.2410
  158DOPC  H15X21793   3.846   3.278   3.282 -0.9247 -0.7153 -0.3836
  158DOPC  H15Y21794   3.704   3.321   3.371  1.1614 -2.0882 -0.6557
  158DOPC  C31621795   3.859   3.490   3.360  0.1401 -0.1729  0.0989
  158DOPC  H16X21796   3.932   3.523   3.283  0.4314 -1.6422 -0.2819
  158DOPC  H16Y21797   3.792   3.572   3.391  0.3395  0.0978 -0.1802
  158DOPC  C31721798   3.935   3.440   3.489 -0.1553  0.0670 -0.5686
  158DOPC  H17X21799   3.859   3.408   3.564 -0.1074 -0.1111 -0.5958
  158DOPC  H17Y21800   4.006   3.359   3.465 -1.4146 -0.6211 -2.0854
  158DOPC  C31821801   4.009   3.557   3.558 -0.0819  0.1711  0.1504
  158DOPC  H18X21802   4.083   3.599   3.486 -0.9968  1.0977 -0.2827
  158DOPC  H18Y21803   3.939   3.634   3.598 -1.1581 -0.7016 -0.0168
  158DOPC  H18Z21804   4.058   3.507   3.644 -0.8110 -2.2365 -0.7397
  159DOPC     N21805   8.456   6.345   1.998  0.3302 -0.2605 -0.3625
  159DOPC   C1221806   8.307   6.367   2.020 -0.0363 -0.0437 -0.5432
  159DOPC  H12A21807   8.270   6.313   2.106 -0.6502  0.2751 -0.6045
  159DOPC  H12B21808   8.258   6.309   1.943  0.0125 -0.7552 -0.0471
  159DOPC   C1321809   8.506   6.422   1.883 -0.4818 -0.7119  0.7284
  159DOPC  H13A21810   8.499   6.529   1.896  1.5535 -0.3464 -0.6660
  159DOPC  H13B21811   0.071   6.393   1.853 -1.1276 -0.9492 -1.3590
  159DOPC  H13C21812   8.450   6.385   1.798 -1.1556  1.1143  0.3363
  159DOPC   C1421813   8.484   6.196   1.975 -0.3969  0.5383  0.7170
  159DOPC  H14A21814   0.057   6.196   1.978 -0.3615 -1.6551  3.2782
  159DOPC  H14B21815   8.462   6.134   2.060  1.4440 -2.9002 -1.0978
  159DOPC  H14C21816   8.450   6.155   1.881  1.4736  0.9046 -0.1694
  159DOPC   C1521817   8.530   6.385   2.123  0.5211 -0.2205 -0.7990
  159DOPC  H15A21818   8.490   6.331   2.208  1.0915  1.2656  0.4550
  159DOPC  H15B21819   8.519   6.491   2.140  1.6925 -0.0145 -1.2260
  159DOPC  H15C21820   0.099   6.363   2.109  0.5351 -0.4321 -0.3692
  159DOPC   C1121821   8.263   6.517   2.030 -0.5487  0.2090 -0.4374
  159DOPC  H11A21822   8.158   6.512   2.065 -0.0736  0.7958  1.1904
  159DOPC  H11B21823   8.313   6.576   2.110  0.2971 -0.6647 -0.2979
  159DOPC     P21824   8.340   6.728   1.889  0.3627 -0.6441  0.0528
  159DOPC   O1321825   8.314   6.779   1.757  0.8658 -0.2204  0.1423
  159DOPC   O1421826   8.482   6.721   1.927  0.3510  0.4785  0.6251
  159DOPC   O1221827   8.274   6.590   1.902 -0.1719 -0.0266 -0.3953
  159DOPC   O1121828   8.256   6.810   1.998  0.2953 -0.3226  0.3805
  159DOPC    C121829   8.118   6.839   1.978  0.1826  0.2739  0.4435
  159DOPC    HA21830   8.064   6.748   1.943 -1.4446  0.3732  2.4938
  159DOPC    HB21831   8.115   6.917   1.899  2.4699 -1.7311 -1.7991
  159DOPC    C221832   8.043   6.861   2.111  0.0489  0.0755  0.3984
  159DOPC    HS21833   7.934   6.858   2.086  0.1464 -2.5364  0.0627
  159DOPC   O2121834   8.072   6.986   2.176 -0.0399  0.0369  0.2475
  159DOPC   C2121835   8.017   7.091   2.121 -0.2476 -0.2889 -0.4885
  159DOPC   O2221836   7.958   7.100   2.019  0.2956  0.1822  0.0672
  159DOPC   C2221837   8.014   7.199   2.228 -0.6492 -0.2392  0.1988
  159DOPC   H2R21838   7.921   7.185   2.287  0.6541  1.1355  2.7697
  159DOPC   H2S21839   8.007   7.301   2.184 -0.6454  0.7798  2.4214
  159DOPC    C321840   8.070   6.745   2.211 -0.2524 -0.1955 -0.0684
  159DOPC    HX21841   8.180   6.754   2.220 -0.4110  2.2630  0.0725
  159DOPC    HY21842   8.026   6.655   2.162 -0.9703 -0.4499  1.0197
  159DOPC   O3121843   8.010   6.765   2.341  0.3961 -0.4036 -0.8207
  159DOPC   C3121844   7.876   6.767   2.359 -0.6331 -0.7579 -0.4783
  159DOPC   O3221845   7.801   6.747   2.264  0.5283 -0.1953 -0.2196
  159DOPC   C3221846   7.843   6.796   2.508  0.6810  0.4575  0.4879
  159DOPC   H2X21847   7.740   6.833   2.490  1.0643  0.8905 -1.0536
  159DOPC   H2Y21848   7.846   6.699   2.561 -1.4066 -0.3529 -0.7618
  159DOPC   C2321849   8.134   7.202   2.330  0.1577  0.4503  0.4972
  159DOPC   H3R21850   8.229   7.232   2.280  0.5246 -1.1353  0.1800
  159DOPC   H3S21851   8.139   7.099   2.372  1.9053  0.2701 -0.0524
  159DOPC   C2421852   8.098   7.276   2.458  0.1541  0.1406  0.1766
  159DOPC   H4R21853   8.005   7.237   2.505 -0.3082  0.4841 -0.4353
  159DOPC   H4S21854   8.079   7.382   2.431  0.9124  0.1694 -0.2793
  159DOPC   C2521855   8.221   7.261   2.557  0.7254  0.3117  0.0752
  159DOPC   H5R21856   8.315   7.296   2.509 -0.1221  0.8282 -1.2617
  159DOPC   H5S21857   8.254   7.156   2.572  0.9536  0.2632 -0.7560
  159DOPC   C2621858   8.205   7.334   2.693  0.0970 -0.2802  0.2054
  159DOPC   H6R21859   8.197   7.442   2.666 -1.1417 -0.4661 -0.2562
  159DOPC   H6S21860   8.298   7.322   2.752  0.0133  0.1755  0.4343
  159DOPC   C2721861   8.079   7.290   2.770 -0.5115 -0.6879 -0.1375
  159DOPC   H7R21862   8.108   7.185   2.789 -3.7646 -1.9745 -1.5852
  159DOPC   H7S21863   7.987   7.300   2.708  0.1524  1.1395 -0.8897
  159DOPC   C2821864   8.061   7.366   2.899  0.3362  0.2699 -0.1262
  159DOPC   H8R21865   8.154   7.349   2.958  0.7888 -1.6019 -1.3001
  159DOPC   H8S21866   7.984   7.310   2.955 -0.3087  1.4474  0.1958
  159DOPC   C2921867   8.022   7.518   2.879  0.0256 -0.3294 -0.5051
  159DOPC   H9R21868   7.974   7.541   2.783  0.2326  3.5731  0.1894
  159DOPC  C21021869   8.031   7.621   2.961 -0.4645 -0.0965  0.2399
  159DOPC  H10R21870   8.000   7.720   2.925  0.2058  0.1730  0.4047
  159DOPC  C21121871   8.075   7.617   3.104 -0.5043  0.0430 -0.3549
  159DOPC  H11R21872   8.056   7.521   3.158 -1.4637  0.7941  0.6915
  159DOPC  H11S21873   8.004   7.681   3.160 -0.7395 -0.2538 -0.3077
  159DOPC  C21221874   8.215   7.665   3.133  0.6465 -0.0459 -0.1724
  159DOPC  H12R21875   8.231   7.657   3.243  0.2191 -2.1766 -0.2257
  159DOPC  H12S21876   8.224   7.770   3.098  0.4134 -0.3332 -1.1151
  159DOPC  C21321877   8.330   7.578   3.078  0.3715 -0.1042 -0.3581
  159DOPC  H13R21878   8.317   7.574   2.967 -2.1586  2.6285 -0.2866
  159DOPC  H13S21879   8.331   7.476   3.120  1.8694 -0.2388 -0.6556
  159DOPC  C21421880   8.472   7.640   3.111 -0.1602 -0.2656  0.0983
  159DOPC  H14R21881   8.476   7.742   3.068  0.5216  0.1128  1.0245
  159DOPC  H14S21882   0.014   7.573   3.067  1.0251  0.3955  1.1158
  159DOPC  C21521883   8.502   7.654   3.264  0.6018  0.0476  0.6787
  159DOPC  H15R21884   8.475   7.556   3.309 -1.8254  1.0345  1.5193
  159DOPC  H15S21885   8.434   7.729   3.310  2.6358  2.8895 -0.6485
  159DOPC  C21621886   0.109   7.697   3.281  0.2277  0.4909 -0.6105
  159DOPC  H16R21887   0.125   7.790   3.222  0.2718 -1.0495 -3.2071
  159DOPC  H16S21888   0.182   7.619   3.252  0.9481 -0.7862  3.9638
  159DOPC  C21721889   0.150   7.713   3.424 -0.6258 -0.2300  0.1269
  159DOPC  H17R21890   0.167   7.616   3.475  1.6003 -1.3064 -2.4149
  159DOPC  H17S21891   0.071   7.767   3.481  1.9508  1.1216  2.6114
  159DOPC  C21821892   0.286   7.791   3.433  0.2993  0.3737 -0.5990
  159DOPC  H18R21893   0.284   7.894   3.392 -2.4440  1.2311  1.4311
  159DOPC  H18S21894   0.357   7.736   3.367 -1.1081 -0.4888 -1.4552
  159DOPC  H18T21895   0.324   7.779   3.537  0.4446  0.0630 -0.6850
  159DOPC   C3321896   7.932   6.899   2.581 -0.9262  0.7969 -0.0753
  159DOPC   H3X21897   7.966   6.975   2.508  0.5326  0.0139 -0.2573
  159DOPC   H3Y21898   8.019   6.844   2.623 -1.4712  0.5101  0.6968
  159DOPC   C3421899   7.869   6.983   2.697  0.8468  0.9210  0.2929
  159DOPC   H4X21900   7.774   7.026   2.657  0.0729  0.0728  1.1589
  159DOPC   H4Y21901   7.935   7.068   2.723  0.0447  1.1176  1.7656
  159DOPC   C3521902   7.842   6.908   2.832  0.2187 -0.0081  0.4014
  159DOPC   H5X21903   7.942   6.870   2.861  0.5609 -0.6974 -1.5346
  159DOPC   H5Y21904   7.787   6.813   2.817  0.2157  0.0470  0.0560
  159DOPC   C3621905   7.786   6.993   2.946 -0.3951 -0.6218 -0.0874
  159DOPC   H6X21906   7.831   7.094   2.934  0.2950 -0.7501  1.1704
  159DOPC   H6Y21907   7.675   6.996   2.945 -0.3844  0.3863  0.0549
  159DOPC   C3721908   7.827   6.952   3.089 -0.4835 -0.4541 -0.0084
  159DOPC   H7X21909   7.761   7.005   3.161  1.2774 -0.3216  1.6031
  159DOPC   H7Y21910   7.818   6.842   3.097  2.3939 -0.8252 -0.8918
  159DOPC   C3821911   7.968   7.019   3.113  0.1192  0.2029 -0.9523
  159DOPC   H8X21912   7.944   7.121   3.151 -0.8190  0.2732 -1.6904
  159DOPC   H8Y21913   8.024   7.031   3.018  0.9245  2.7099 -0.2221
  159DOPC   C3921914   8.061   6.940   3.211  0.6178  0.0752  0.2615
  159DOPC   H9X21915   8.005   6.864   3.268  1.7758 -0.9940  0.0089
  159DOPC  C31021916   8.182   6.972   3.262 -0.2159  0.1432  0.4483
  159DOPC  H10X21917   8.236   6.908   3.333  1.2568  1.8355  0.9031
  159DOPC  C31121918   8.255   7.098   3.216 -0.0329  0.4915  0.5224
  159DOPC  H11X21919   8.211   7.193   3.252 -0.4108  0.1268  1.0404
  159DOPC  H11Y21920   8.253   7.097   3.105 -1.9059  2.6131  0.4678
  159DOPC  C31221921   8.398   7.088   3.261  0.6327 -0.2277 -0.5658
  159DOPC  H12X21922   8.451   7.019   3.192 -1.6832 -1.1326 -1.5619
  159DOPC  H12Y21923   8.413   7.045   3.362  0.2001  1.9675  0.5118
  159DOPC  C31321924   8.464   7.222   3.247  0.3295 -0.3766  0.1690
  159DOPC  H13X21925   8.460   7.252   3.140 -0.6993 -0.0039  0.3049
  159DOPC  H13Y21926   8.417   7.299   3.312 -0.0609  1.8207 -2.4905
  159DOPC  C31421927   0.077   7.223   3.292  0.1547  0.0683  0.7286
  159DOPC  H14X21928   0.128   7.135   3.250 -0.0226 -0.1294  0.9254
  159DOPC  H14Y21929   0.139   7.309   3.258  0.2649  1.1392  3.3544
  159DOPC  C31521930   0.087   7.220   3.441 -0.6527 -0.0582  0.5385
  159DOPC  H15X21931   0.021   7.143   3.486  0.7267 -0.1396  2.5162
  159DOPC  H15Y21932   0.042   7.309   3.489  1.4756  1.7050 -0.5174
  159DOPC  C31621933   0.232   7.208   3.493  0.6945  0.6868  0.0533
  159DOPC  H16X21934   0.295   7.283   3.442 -0.5998  1.7634  0.0030
  159DOPC  H16Y21935   0.229   7.240   3.600 -0.9710 -1.9332  0.8923
  159DOPC  C31721936   0.293   7.070   3.460 -0.6836  0.0033 -0.0456
  159DOPC  H17X21937   0.214   6.996   3.485 -2.6048  1.8300 -0.5184
  159DOPC  H17Y21938   0.302   7.064   3.349  1.5574  0.2438  0.0628
  159DOPC  C31821939   0.427   7.026   3.529 -0.0329 -0.5862 -0.0850
  159DOPC  H18X21940   0.420   7.030   3.640 -0.5480  1.1893 -0.1401
  159DOPC  H18Y21941   0.456   6.925   3.497  2.8968  0.6178 -1.5469
  159DOPC  H18Z21942   0.502   7.100   3.494 -0.4642 -0.1401 -0.0856
  160DOPC     N21943   3.375   7.217   1.659 -0.0364 -0.0087 -0.3901
  160DOPC   C1221944   3.348   7.076   1.608 -0.6342 -0.1428 -0.4938
  160DOPC  H12A21945   3.425   7.047   1.539 -0.7964  1.0951 -1.2172
  160DOPC  H12B21946   3.255   7.071   1.553 -1.7151 -0.3226  1.2752
  160DOPC   C1321947   3.266   7.262   1.752  0.6211  0.1352 -0.3055
  160DOPC  H13A21948   3.266   7.191   1.833 -1.5071  1.0412  0.5465
  160DOPC  H13B21949   3.282   7.361   1.792 -1.2115  0.0804  0.6708
  160DOPC  H13C21950   3.166   7.258   1.710  0.2872  1.4160  0.3123
  160DOPC   C1421951   3.364   7.317   1.541  1.2173 -0.0711  0.1528
  160DOPC  H14A21952   3.370   7.420   1.572 -0.0359  0.8329 -2.3139
  160DOPC  H14B21953   3.440   7.287   1.470  1.1500  1.0589 -0.4140
  160DOPC  H14C21954   3.271   7.299   1.489  1.9112 -0.7760 -0.8831
  160DOPC   C1521955   3.506   7.228   1.735  0.5178 -0.0395 -1.0795
  160DOPC  H15A21956   3.514   7.148   1.808 -0.2233 -0.0537 -1.0045
  160DOPC  H15B21957   3.521   7.321   1.787 -0.7226 -0.5734  0.3250
  160DOPC  H15C21958   3.586   7.216   1.663 -0.7282  0.2061 -2.5580
  160DOPC   C1121959   3.354   6.954   1.710  0.9154  0.1260 -0.3817
  160DOPC  H11A21960   3.293   6.982   1.799  3.1426  0.7461  1.0387
  160DOPC  H11B21961   3.309   6.863   1.665 -1.2414  0.2411  1.3516
  160DOPC     P21962   3.572   6.833   1.696  0.1198 -0.1506  0.3373
  160DOPC   O1321963   3.712   6.838   1.736  0.0501 -0.3385  0.2179
  160DOPC   O1421964   3.550   6.838   1.550 -0.2451  0.4100  1.0283
  160DOPC   O1221965   3.479   6.931   1.772  0.1492 -0.2084 -0.7091
  160DOPC   O1121966   3.521   6.690   1.743  0.4829 -0.4078  0.1401
  160DOPC    C121967   3.429   6.680   1.849 -0.0126 -0.2491  0.4010
  160DOPC    HA21968   3.371   6.586   1.837 -0.2716 -0.1692  0.9584
  160DOPC    HB21969   3.347   6.755   1.845  1.0344  0.8767 -0.2843
  160DOPC    C221970   3.505   6.682   1.987  0.4897 -0.2507  0.7980
  160DOPC    HS21971   3.431   6.659   2.066  2.1982  1.5233  3.0802
  160DOPC   O2121972   3.560   6.817   2.014 -0.0376  0.6971 -0.2255
  160DOPC   C2121973   3.486   6.913   2.055  0.2470 -0.6425  0.1984
  160DOPC   O2221974   3.369   6.900   2.085 -0.7263  0.0540  0.0543
  160DOPC   C2221975   3.561   7.045   2.063 -0.3994  0.5737  0.4971
  160DOPC   H2R21976   3.485   7.124   2.050  1.0244  1.7246 -1.2873
  160DOPC   H2S21977   3.639   7.038   1.985 -0.3725  1.1737  0.4683
  160DOPC    C321978   3.613   6.567   1.987 -0.2038  0.1107  0.1924
  160DOPC    HX21979   3.693   6.580   1.911 -0.6483  2.4544  0.0737
  160DOPC    HY21980   3.569   6.476   1.940  2.2061 -0.8013 -0.4366
  160DOPC   O3121981   3.668   6.546   2.122  0.2751  0.0518 -0.2656
  160DOPC   C3121982   3.740   6.632   2.178 -0.0115  0.1164 -0.5125
  160DOPC   O3221983   3.787   6.731   2.123  0.7094 -0.3357 -0.3225
  160DOPC   C3221984   3.747   6.611   2.331 -0.6293  0.9592 -0.0134
  160DOPC   H2X21985   3.788   6.508   2.339 -0.0090  0.9741 -2.3524
  160DOPC   H2Y21986   3.822   6.681   2.374  0.8615 -1.0279  0.7815
  160DOPC   C2321987   3.634   7.060   2.204 -0.0456  0.0463  0.1756
  160DOPC   H3R21988   3.702   7.147   2.202 -0.4817  0.3804 -0.7340
  160DOPC   H3S21989   3.690   6.970   2.236 -0.1388  0.3859  1.3241
  160DOPC   C2421990   3.529   7.075   2.306  0.8189  0.3845 -0.7036
  160DOPC   H4R21991   3.487   6.975   2.327  1.7533  0.1465  0.1380
  160DOPC   H4S21992   3.456   7.148   2.265  0.7166  2.2333  2.4365
  160DOPC   C2521993   3.584   7.127   2.443 -0.3983 -0.4460  0.7683
  160DOPC   H5R21994   3.581   7.237   2.457  0.4877 -0.5068  1.5982
  160DOPC   H5S21995   3.692   7.099   2.452 -0.2507  0.0876  0.6677
  160DOPC   C2621996   3.523   7.055   2.573  0.3376 -0.6341  0.4344
  160DOPC   H6R21997   3.522   6.945   2.558  1.4897 -0.6419  0.3159
  160DOPC   H6S21998   3.415   7.079   2.586  0.3201 -0.3256 -0.2156
  160DOPC   C2721999   3.598   7.094   2.703  0.3258 -0.1139  0.1322
  160DOPC   H7R22000   3.624   7.201   2.687  1.9402 -0.5979 -0.7868
  160DOPC   H7S22001   3.687   7.027   2.712 -0.5586 -1.1512  1.6078
  160DOPC   C2822002   3.516   7.079   2.831  0.2870 -0.0504 -0.4344
  160DOPC   H8R22003   3.437   7.157   2.839  0.3200 -0.1781  1.7884
  160DOPC   H8S22004   3.580   7.098   2.920  0.1835 -2.9575  0.3727
  160DOPC   C2922005   3.456   6.944   2.845 -0.1509 -0.3890 -0.0786
  160DOPC   H9R22006   3.526   6.868   2.884 -0.2186 -1.4681 -1.9602
  160DOPC  C21022007   3.327   6.910   2.823  0.0625  0.6646  0.0732
  160DOPC  H10R22008   3.300   6.803   2.826 -0.7244  0.8142 -1.1586
  160DOPC  C21122009   3.213   6.999   2.777  0.1307 -0.6534  0.1903
  160DOPC  H11R22010   3.178   6.948   2.685  2.2202 -1.6232 -0.1236
  160DOPC  H11S22011   3.246   7.097   2.736  1.5307 -2.3664 -3.2192
  160DOPC  C21222012   3.104   7.017   2.890 -0.1715 -0.0535  0.0271
  160DOPC  H12R22013   3.161   7.078   2.962  1.7331 -3.6800  1.8755
  160DOPC  H12S22014   3.082   6.923   2.945  3.1357 -0.2416  1.2516
  160DOPC  C21322015   2.978   7.093   2.852 -0.1300 -0.0661  0.0596
  160DOPC  H13R22016   2.935   7.079   2.750  0.4969  4.3050 -1.0550
  160DOPC  H13S22017   2.998   7.202   2.863 -1.1670  0.0614  0.8444
  160DOPC  C21422018   2.872   7.058   2.957 -0.1043 -0.0366 -0.2141
  160DOPC  H14R22019   2.840   6.952   2.950  2.7005 -0.9368 -0.3871
  160DOPC  H14S22020   2.780   7.113   2.927 -1.7363 -2.3969  0.1955
  160DOPC  C21522021   2.904   7.098   3.097 -0.3732 -0.1824 -0.5826
  160DOPC  H15R22022   2.927   7.206   3.103  1.1693 -0.4406 -1.4414
  160DOPC  H15S22023   2.996   7.044   3.126  1.0178  0.6186 -3.1686
  160DOPC  C21622024   2.784   7.082   3.189 -0.0162  0.4772 -0.0741
  160DOPC  H16R22025   2.760   6.974   3.203  0.0477  0.6135  1.1688
  160DOPC  H16S22026   2.695   7.128   3.140 -0.8298 -2.0632 -1.1629
  160DOPC  C21722027   2.794   7.141   3.330 -0.3053  0.3997 -0.0344
  160DOPC  H17R22028   2.707   7.119   3.395 -0.2935 -0.4542 -0.3047
  160DOPC  H17S22029   2.789   7.252   3.319 -1.8993  0.3017 -0.4272
  160DOPC  C21822030   2.924   7.093   3.404  0.1844 -0.3619 -0.0389
  160DOPC  H18R22031   3.014   7.106   3.340  0.6916  0.9309  0.8998
  160DOPC  H18S22032   2.921   6.983   3.418  0.5637 -0.4825 -0.8487
  160DOPC  H18T22033   2.939   7.148   3.499  0.2807 -0.4140 -0.0242
  160DOPC   C3322034   3.607   6.621   2.396 -1.0978  0.1066 -0.5110
  160DOPC   H3X22035   3.527   6.567   2.342 -0.4924 -0.1946 -1.1137
  160DOPC   H3Y22036   3.576   6.727   2.409 -1.4504  0.2004 -1.9412
  160DOPC   C3422037   3.612   6.569   2.543 -0.3766  0.4548  0.1729
  160DOPC   H4X22038   3.696   6.614   2.600  0.1834  0.0324 -0.3104
  160DOPC   H4Y22039   3.636   6.461   2.529  2.1181  0.9958 -0.2215
  160DOPC   C3522040   3.475   6.594   2.621 -0.1217 -0.1775 -0.5941
  160DOPC   H5X22041   3.386   6.553   2.568  0.3841 -2.7596  0.4212
  160DOPC   H5Y22042   3.463   6.704   2.615  0.5847 -0.0889 -0.4864
  160DOPC   C3622043   3.466   6.540   2.762 -0.8645  0.2137  0.9072
  160DOPC   H6X22044   3.533   6.596   2.831  0.8179 -1.1458  0.4299
  160DOPC   H6Y22045   3.367   6.567   2.806 -0.8313  0.7960  0.6466
  160DOPC   C3722046   3.481   6.389   2.760 -0.9731 -0.0534 -0.4048
  160DOPC   H7X22047   3.421   6.353   2.673 -2.7415  1.5475  0.0648
  160DOPC   H7Y22048   3.588   6.363   2.753 -0.6713  1.4634 -3.6968
  160DOPC   C3822049   3.415   6.331   2.886  0.2081 -0.0248  0.6410
  160DOPC   H8X22050   3.392   6.222   2.887 -0.3613  0.0635 -1.0335
  160DOPC   H8Y22051   3.312   6.372   2.888 -0.5716 -1.7770 -0.8138
  160DOPC   C3922052   3.495   6.353   3.011 -0.2087 -0.0753  0.4809
  160DOPC   H9X22053   3.597   6.312   3.004  0.8188  2.4319 -0.4013
  160DOPC  C31022054   3.463   6.428   3.121 -0.5174 -0.0853 -0.0900
  160DOPC  H10X22055   3.546   6.431   3.193  0.1155  0.8807 -0.8432
  160DOPC  C31122056   3.340   6.513   3.139 -0.0708 -0.9435  0.2301
  160DOPC  H11X22057   3.304   6.479   3.238  1.9669 -1.0665  0.9883
  160DOPC  H11Y22058   3.253   6.488   3.076 -2.1393  0.3286  2.4157
  160DOPC  C31222059   3.373   6.659   3.141  1.0674  0.6080 -0.1541
  160DOPC  H12X22060   3.430   6.703   3.056  2.4911  1.0798  0.9959
  160DOPC  H12Y22061   3.438   6.686   3.226 -1.6819  0.2605  2.2198
  160DOPC  C31322062   3.240   6.733   3.167 -0.2290 -0.2027  0.6823
  160DOPC  H13X22063   3.174   6.723   3.079 -1.6585  0.3769  1.6641
  160DOPC  H13Y22064   3.193   6.678   3.252 -1.3254 -3.0872 -1.6165
  160DOPC  C31422065   3.264   6.877   3.215  0.3953 -0.0442  0.3636
  160DOPC  H14X22066   3.311   6.941   3.137 -0.0172 -1.1386 -0.8284
  160DOPC  H14Y22067   3.160   6.914   3.226 -0.1021 -1.0745 -0.7142
  160DOPC  C31522068   3.328   6.887   3.352 -0.5926  0.4426  0.1808
  160DOPC  H15X22069   3.432   6.846   3.355 -0.3954  0.9346  0.2146
  160DOPC  H15Y22070   3.273   6.816   3.417 -0.2105  0.1243  0.1628
  160DOPC  C31622071   3.302   7.024   3.422  0.4258  0.5423 -0.2269
  160DOPC  H16X22072   3.309   7.109   3.350 -0.2009  0.3769 -0.4930
  160DOPC  H16Y22073   3.193   7.015   3.444 -0.1653  0.7210 -2.7203
  160DOPC  C31722074   3.380   7.036   3.556  0.4181 -0.3517 -0.4438
  160DOPC  H17X22075   3.319   6.975   3.626 -0.2212 -0.4353 -1.0704
  160DOPC  H17Y22076   3.479   6.990   3.535  0.0452 -0.1864 -2.7920
  160DOPC  C31822077   3.398   7.177   3.608  0.6138 -0.0827  0.4568
  160DOPC  H18X22078   3.302   7.234   3.604  0.2331 -0.6718 -3.8463
  160DOPC  H18Y22079   3.441   7.165   3.710  0.6735 -3.2578  0.1682
  160DOPC  H18Z22080   3.470   7.228   3.541 -0.9660  1.4958 -0.1383
  161DOPC     N22081   1.075   7.996   0.999  0.4089 -0.0968 -0.1484
  161DOPC   C1222082   1.113   7.998   1.149  0.6595  0.1134  0.2806
  161DOPC  H12A22083   1.183   8.080   1.159  1.1737 -0.4916  2.0921
  161DOPC  H12B22084   1.177   7.914   1.173  1.3744  0.6467  0.2716
  161DOPC   C1322085   1.191   8.020   0.907  0.3001 -0.5741  0.6234
  161DOPC  H13A22086   1.150   8.051   0.811  0.6551  0.9700  0.9471
  161DOPC  H13B22087   1.257   8.101   0.933  1.0389 -1.3819  1.3039
  161DOPC  H13C22088   1.255   7.934   0.892  0.2204 -0.5790  0.2880
  161DOPC   C1422089   0.973   8.106   0.977  0.2201  0.7210  0.6907
  161DOPC  H14A22090   0.893   8.084   1.047  0.6957 -0.6240  0.8374
  161DOPC  H14B22091   1.012   8.206   0.987 -0.6997  1.0134  1.5401
  161DOPC  H14C22092   0.929   8.092   0.879 -0.1700  0.3943  0.9090
  161DOPC   C1522093   1.008   7.859   0.974 -0.3875 -0.2067  0.0821
  161DOPC  H15A22094   1.085   7.784   0.960 -0.2084  0.1107 -0.6902
  161DOPC  H15B22095   0.958   7.872   0.879  4.6696  0.7935 -2.8323
  161DOPC  H15C22096   0.940   7.826   1.051  1.5509  1.6807  2.8187
  161DOPC   C1122097   1.001   8.000   1.257 -0.5283 -0.0013  0.8150
  161DOPC  H11A22098   1.056   8.004   1.353  2.1189 -2.8789 -0.3902
  161DOPC  H11B22099   0.935   8.089   1.250  0.1606  0.5111  0.6311
  161DOPC     P22100   1.020   7.739   1.314  0.4240 -0.0600 -0.0448
  161DOPC   O1322101   1.156   7.729   1.247  0.1131 -0.2442 -0.2599
  161DOPC   O1422102   0.933   7.619   1.297 -0.1835  0.4202  0.3572
  161DOPC   O1222103   0.939   7.868   1.261  0.0723  0.2080 -0.3090
  161DOPC   O1122104   1.043   7.758   1.469 -0.4363 -0.1399 -0.1331
  161DOPC    C122105   1.109   7.654   1.549 -0.3438 -0.3224  0.1648
  161DOPC    HA22106   1.188   7.706   1.607  1.0620  0.5672 -2.3697
  161DOPC    HB22107   1.158   7.573   1.490 -0.3128  0.5415 -1.0405
  161DOPC    C222108   1.006   7.574   1.633  0.3823  0.0367  0.2397
  161DOPC    HS22109   0.941   7.517   1.563  0.2859  0.2259  0.1759
  161DOPC   O2122110   0.931   7.679   1.698 -0.6278  0.0751 -0.0164
  161DOPC   C2122111   0.824   7.623   1.760  0.0004 -1.0487  0.3528
  161DOPC   O2222112   0.793   7.507   1.749  0.3897  0.1421  0.0975
  161DOPC   C2222113   0.749   7.714   1.857 -0.3465  0.7821  0.5786
  161DOPC   H2R22114   0.710   7.790   1.785 -0.2984  0.7631  0.5326
  161DOPC   H2S22115   0.823   7.764   1.923  1.1244  0.0643 -0.4662
  161DOPC    C322116   1.081   7.489   1.734 -0.4209  0.6780  0.0706
  161DOPC    HX22117   1.145   7.416   1.680 -0.6836 -1.5921  2.6190
  161DOPC    HY22118   1.019   7.424   1.799 -0.0214 -1.4777 -1.5999
  161DOPC   O3122119   1.175   7.569   1.809  0.9900 -0.2223  0.6629
  161DOPC   C3122120   1.132   7.624   1.926 -0.0003 -0.0050  0.3031
  161DOPC   O3222121   1.020   7.609   1.970 -0.7536 -0.5476  0.0200
  161DOPC   C3222122   1.242   7.701   1.993 -0.2835  0.1902  0.0768
  161DOPC   H2X22123   1.265   7.649   2.089 -1.4069  0.3476  0.4490
  161DOPC   H2Y22124   1.338   7.691   1.938 -0.2920 -2.5634  0.4340
  161DOPC   C2322125   0.646   7.635   1.939  0.6674  0.4874  0.2061
  161DOPC   H3R22126   0.578   7.579   1.871 -0.0551  0.8960  0.5770
  161DOPC   H3S22127   0.568   7.702   1.983 -1.5970 -1.3979 -0.6908
  161DOPC   C2422128   0.692   7.548   2.052  0.2101  0.1087 -0.0235
  161DOPC   H4R22129   0.766   7.477   2.008  0.6367  0.2850  0.4109
  161DOPC   H4S22130   0.606   7.490   2.091 -0.9429  2.0866  0.4998
  161DOPC   C2522131   0.749   7.626   2.174  0.1450  0.1400 -0.4281
  161DOPC   H5R22132   0.673   7.703   2.200  1.4498  1.0807  0.7679
  161DOPC   H5S22133   0.837   7.684   2.139  0.7691 -1.6018 -1.8749
  161DOPC   C2622134   0.771   7.550   2.303 -0.3126  0.0118  0.3264
  161DOPC   H6R22135   0.839   7.463   2.292  0.1945  0.1289  2.2423
  161DOPC   H6S22136   0.672   7.510   2.336  0.1048 -2.3068 -0.9752
  161DOPC   C2722137   0.831   7.650   2.409  0.3858  0.1477 -0.3867
  161DOPC   H7R22138   0.767   7.737   2.432  0.9176  1.3233 -2.9397
  161DOPC   H7S22139   0.920   7.692   2.358 -0.1403  1.5350 -0.2074
  161DOPC   C2822140   0.897   7.570   2.538  0.1306 -0.2706 -0.0939
  161DOPC   H8R22141   0.929   7.647   2.611 -2.9533  0.1044  1.0157
  161DOPC   H8S22142   0.980   7.507   2.501  2.2030  2.9355 -1.3684
  161DOPC   C2922143   0.793   7.487   2.608  0.6020  0.4880 -0.0220
  161DOPC   H9R22144   0.786   7.383   2.573  0.2511  0.1118  1.1177
  161DOPC  C21022145   0.708   7.521   2.704  0.1521  0.1208 -0.3781
  161DOPC  H10R22146   0.644   7.445   2.750  2.5519 -1.4706  0.5748
  161DOPC  C21122147   0.691   7.664   2.759  0.1272 -0.0533 -0.0997
  161DOPC  H11R22148   0.588   7.704   2.747 -1.1691 -2.0634  2.9335
  161DOPC  H11S22149   0.766   7.732   2.714  1.0440 -1.7101 -1.1902
  161DOPC  C21222150   0.698   7.667   2.917  0.0682 -0.1398  0.8789
  161DOPC  H12R22151   0.802   7.643   2.948  0.2510 -2.6857 -1.3260
  161DOPC  H12S22152   0.639   7.587   2.967 -2.1045 -0.1828 -1.5248
  161DOPC  C21322153   0.650   7.805   2.969 -0.1639  0.3745  0.0553
  161DOPC  H13R22154   0.548   7.826   2.931 -1.0522  0.4483  2.3470
  161DOPC  H13S22155   0.709   7.895   2.938  1.3900  0.1513  2.1233
  161DOPC  C21422156   0.644   7.803   3.124 -0.0882 -0.1399  0.8607
  161DOPC  H14R22157   0.743   7.769   3.162  1.3470  2.7542 -0.0656
  161DOPC  H14S22158   0.570   7.728   3.161  0.1659  0.8978  3.7361
  161DOPC  C21522159   0.607   7.938   3.177  0.1064  0.0898  0.1589
  161DOPC  H15R22160   0.700   7.999   3.176  1.6281 -2.0470 -2.5786
  161DOPC  H15S22161   0.582   7.921   3.284  2.6495  0.8296  0.9292
  161DOPC  C21622162   0.498   8.022   3.100  0.1693 -0.0922 -0.0120
  161DOPC  H16R22163   0.405   7.961   3.102  0.6129 -0.9034 -1.7671
  161DOPC  H16S22164   0.539   8.030   2.997 -0.3600 -1.6652 -0.3777
  161DOPC  C21722165   0.472   8.158   3.155  0.0392 -0.2625 -0.5410
  161DOPC  H17R22166   0.394   8.207   3.093  0.8385  1.4273 -0.2723
  161DOPC  H17S22167   0.568   8.213   3.145 -0.5798  1.3827  1.6574
  161DOPC  C21822168   0.418   8.156   3.301 -0.4761  0.0973 -0.0194
  161DOPC  H18R22169   0.313   8.118   3.306  0.1682 -1.8045  0.0757
  161DOPC  H18S22170   0.428   8.259   3.340  2.1962 -0.7413  1.7460
  161DOPC  H18T22171   0.470   8.088   3.372 -1.8696 -1.9700 -0.8628
  161DOPC   C3322172   1.209   7.849   2.015  0.2624  0.0511  0.5660
  161DOPC   H3X22173   1.189   7.902   1.919 -1.6120 -2.0414 -0.2941
  161DOPC   H3Y22174   1.303   7.885   2.062  0.0678 -1.9457  2.6937
  161DOPC   C3422175   1.091   7.879   2.102 -0.0522  0.1550  0.1617
  161DOPC   H4X22176   1.111   7.818   2.192 -1.3908 -0.3971  0.1091
  161DOPC   H4Y22177   0.996   7.834   2.064  0.5740 -0.9502 -0.1337
  161DOPC   C3522178   1.080   8.030   2.148  0.5535 -0.5588  0.6702
  161DOPC   H5X22179   1.069   8.090   2.055 -0.7245 -2.7673 -0.7154
  161DOPC   H5Y22180   1.172   8.064   2.200  0.4762  3.4042 -1.4320
  161DOPC   C3622181   0.955   8.077   2.232 -0.3696  0.1658  0.5341
  161DOPC   H6X22182   0.943   8.188   2.235 -1.2834  0.0748  0.5203
  161DOPC   H6Y22183   0.856   8.044   2.193  0.0455  1.3706 -1.7089
  161DOPC   C3722184   0.970   8.022   2.378  0.1575  0.8530  0.4880
  161DOPC   H7X22185   0.974   7.911   2.376 -0.5786  0.7969  1.1095
  161DOPC   H7Y22186   1.066   8.058   2.421  0.2992  1.6287 -0.4528
  161DOPC   C3822187   0.865   8.066   2.477 -0.8457 -0.3714 -0.3490
  161DOPC   H8X22188   0.772   8.030   2.429 -1.1849  0.2601 -0.1867
  161DOPC   H8Y22189   0.859   8.177   2.467 -0.6543 -0.4834 -1.8685
  161DOPC   C3922190   0.884   8.007   2.615  0.4473 -0.3529 -0.2433
  161DOPC   H9X22191   0.893   7.898   2.611 -1.3909 -0.5005 -2.1912
  161DOPC  C31022192   0.885   8.069   2.737  0.3795  0.0604 -0.0045
  161DOPC  H10X22193   0.910   8.009   2.825  0.8033 -0.1383 -0.2531
  161DOPC  C31122194   0.880   8.221   2.764 -0.2383 -0.1532 -0.1486
  161DOPC  H11X22195   0.803   8.251   2.839 -2.1275  1.4313 -2.5617
  161DOPC  H11Y22196   0.855   8.275   2.670 -0.0525 -1.4588 -0.9882
  161DOPC  C31222197   1.022   8.260   2.824  0.9387 -0.3793  0.4550
  161DOPC  H12X22198   1.019   8.370   2.839 -1.3711 -0.4596  0.9066
  161DOPC  H12Y22199   1.099   8.245   2.746  0.6102 -2.1663  0.4228
  161DOPC  C31322200   1.071   8.189   2.944  0.6833  0.6327 -0.3473
  161DOPC  H13X22201   0.992   8.178   3.021  1.7347 -1.0769  0.5364
  161DOPC  H13Y22202   1.091   8.085   2.912 -1.1630 -0.0485  0.5323
  161DOPC  C31422203   1.199   8.268   2.992  0.0391  0.9090  0.6394
  161DOPC  H14X22204   1.270   8.266   2.907 -0.0526  3.2419  0.4320
  161DOPC  H14Y22205   1.173   8.376   3.006  0.5156  1.1606 -0.3337
  161DOPC  C31522206   1.270   8.205   3.111 -0.7136 -0.6767  0.9145
  161DOPC  H15X22207   1.366   8.261   3.115 -0.4566 -1.0050 -0.3216
  161DOPC  H15Y22208   1.301   8.101   3.086 -1.5508 -0.3572 -1.7127
  161DOPC  C31622209   1.194   8.197   3.243  0.0119  0.6271 -0.4070
  161DOPC  H16X22210   1.226   8.288   3.297  1.3815  0.6188 -1.1492
  161DOPC  H16Y22211   1.084   8.201   3.231  0.1130  1.2032 -1.2830
  161DOPC  C31722212   1.237   8.084   3.339  0.5337  0.5734  0.1549
  161DOPC  H17X22213   1.201   8.091   3.444  1.8184 -0.6086  0.6940
  161DOPC  H17Y22214   1.198   7.984   3.311  0.2360  0.1275  2.0372
  161DOPC  C31822215   1.388   8.079   3.358 -0.0452 -0.3702  0.3152
  161DOPC  H18X22216   1.421   8.179   3.393  2.6960 -1.0577 -0.1333
  161DOPC  H18Y22217   1.427   8.011   3.437 -0.2918 -0.8823  0.0000
  161DOPC  H18Z22218   1.444   8.053   3.266 -1.0740  0.2831 -0.5144
  162DOPC     N22219   3.174   3.198   1.088  0.4076 -0.2498 -0.1050
  162DOPC   C1222220   3.085   3.159   1.210 -0.2294 -0.1783 -0.7793
  162DOPC  H12A22221   3.111   3.065   1.255  0.1896  0.4911  0.4158
  162DOPC  H12B22222   2.984   3.138   1.179 -0.9009  0.2188  1.0521
  162DOPC   C1322223   3.317   3.168   1.115  0.3390  0.2504 -0.1967
  162DOPC  H13A22224   3.331   3.073   1.164 -0.0378  0.3733  0.1528
  162DOPC  H13B22225   3.377   3.163   1.025 -0.7361  1.1917 -0.9987
  162DOPC  H13C22226   3.366   3.237   1.182  1.7211  0.0743 -0.9858
  162DOPC   C1422227   3.142   3.340   1.049  0.3932 -0.0588  0.1092
  162DOPC  H14A22228   3.036   3.358   1.038  0.3525 -1.3385 -2.3359
  162DOPC  H14B22229   3.182   3.399   1.130 -1.5956  0.6802  0.6277
  162DOPC  H14C22230   3.186   3.370   0.955  1.3339  1.9961  1.1488
  162DOPC   C1522231   3.142   3.110   0.970 -0.1606  0.2682  0.8561
  162DOPC  H15A22232   3.046   3.124   0.924  1.2083  0.8251 -2.0291
  162DOPC  H15B22233   3.152   3.011   1.012  1.7314  0.5702  1.2130
  162DOPC  H15C22234   3.207   3.125   0.885 -2.3952  5.5461 -0.2752
  162DOPC   C1122235   3.083   3.250   1.337  0.0480 -0.0344  0.3855
  162DOPC  H11A22236   3.044   3.193   1.424 -0.2207 -0.4103  0.0240
  162DOPC  H11B22237   3.189   3.277   1.358  0.9535 -2.6116 -0.4774
  162DOPC     P22238   2.841   3.355   1.316  0.0954  0.2207 -0.0239
  162DOPC   O1322239   2.804   3.217   1.353 -0.2524  0.4727  0.1993
  162DOPC   O1422240   2.795   3.394   1.183  0.5870  0.0661  0.8460
  162DOPC   O1222241   3.007   3.371   1.322  0.4501 -0.4848  0.4048
  162DOPC   O1122242   2.796   3.457   1.424  0.4778  0.6279  0.1061
  162DOPC    C122243   2.880   3.528   1.514 -0.2541  0.0501  0.2729
  162DOPC    HA22244   2.857   3.635   1.498  0.3189 -0.0699 -1.6306
  162DOPC    HB22245   2.986   3.501   1.493 -0.9542 -0.7184 -2.7708
  162DOPC    C222246   2.844   3.499   1.667 -0.0373 -0.7022 -0.4073
  162DOPC    HS22247   2.886   3.588   1.717  2.4781 -2.1374  0.1685
  162DOPC   O2122248   2.907   3.385   1.726 -0.2707  0.0926  0.0808
  162DOPC   C2122249   3.040   3.378   1.720 -0.0429  0.7684  0.3291
  162DOPC   O2222250   3.112   3.463   1.672  0.3681  0.1959 -0.5458
  162DOPC   C2222251   3.092   3.236   1.765 -0.4815  0.0665 -0.2503
  162DOPC   H2R22252   3.149   3.196   1.679  0.6210  4.1964 -1.6927
  162DOPC   H2S22253   3.006   3.165   1.771  1.6134 -2.5366  0.8609
  162DOPC    C322254   2.689   3.509   1.686 -0.0578 -0.5688 -0.2866
  162DOPC    HX22255   2.635   3.425   1.638 -1.9007  0.4758 -0.1391
  162DOPC    HY22256   2.651   3.601   1.636 -1.0610 -1.2346 -0.7805
  162DOPC   O3122257   2.644   3.514   1.822  0.5381  0.2224  0.3451
  162DOPC   C3122258   2.667   3.630   1.890  0.4199  0.0617  0.5579
  162DOPC   O3222259   2.731   3.720   1.846  0.1734  0.0705  0.5538
  162DOPC   C3222260   2.598   3.638   2.029 -0.3429  0.5892 -0.2368
  162DOPC   H2X22261   2.508   3.574   2.022  0.4852 -0.7698  0.8373
  162DOPC   H2Y22262   2.665   3.598   2.109  0.3415  2.7600  0.3306
  162DOPC   C2322263   3.175   3.251   1.894 -0.0480 -0.2627 -0.2736
  162DOPC   H3R22264   3.264   3.316   1.882 -0.2111 -0.1770 -1.1033
  162DOPC   H3S22265   3.201   3.144   1.905 -3.8390 -1.2615  0.4205
  162DOPC   C2422266   3.100   3.294   2.020  0.4745 -0.0227 -0.2091
  162DOPC   H4R22267   3.152   3.256   2.111  1.7967 -0.1978 -1.0055
  162DOPC   H4S22268   3.000   3.246   2.022  0.9667 -1.2914  3.4469
  162DOPC   C2522269   3.086   3.443   2.040 -0.0781 -0.3381 -0.5305
  162DOPC   H5R22270   3.020   3.489   1.963  0.2490  0.6316 -0.2430
  162DOPC   H5S22271   3.185   3.491   2.027  0.2644 -1.1062 -0.7860
  162DOPC   C2622272   3.025   3.477   2.182  0.4025 -0.1245  0.0306
  162DOPC   H6R22273   3.109   3.463   2.253 -0.9120 -0.0318  1.6619
  162DOPC   H6S22274   2.948   3.398   2.192  0.1795  0.0556 -0.2341
  162DOPC   C2722275   2.958   3.615   2.196 -0.0811 -0.2637 -0.2744
  162DOPC   H7R22276   2.898   3.631   2.104 -1.3240 -2.0362  0.1751
  162DOPC   H7S22277   3.037   3.694   2.198 -2.6839  2.5255  0.8005
  162DOPC   C2822278   2.882   3.637   2.328 -0.3040  0.2560  0.0891
  162DOPC   H8R22279   2.949   3.602   2.409  1.6145  1.6079 -0.8355
  162DOPC   H8S22280   2.800   3.563   2.338 -0.5645  0.7599  1.9550
  162DOPC   C2922281   2.822   3.767   2.356 -0.3369 -0.0710  0.1910
  162DOPC   H9R22282   2.715   3.767   2.332 -0.4687 -2.0058  0.6201
  162DOPC  C21022283   2.872   3.867   2.435  0.2221 -0.0012  0.4135
  162DOPC  H10R22284   2.808   3.953   2.460 -0.7128 -0.8909  1.1587
  162DOPC  C21122285   3.012   3.879   2.491 -0.8067 -0.1162 -1.0867
  162DOPC  H11R22286   3.074   3.792   2.462  0.1583  0.2559 -0.2029
  162DOPC  H11S22287   3.005   3.875   2.602 -0.3786 -1.7972 -1.0904
  162DOPC  C21222288   3.078   4.015   2.479 -0.3768 -0.3418  0.1173
  162DOPC  H12R22289   3.004   4.096   2.499 -1.3420 -1.6119  2.0202
  162DOPC  H12S22290   3.101   4.041   2.374 -2.1011  2.7231  0.3714
  162DOPC  C21322291   3.205   4.035   2.555 -0.2348 -0.3370 -0.2646
  162DOPC  H13R22292   3.257   3.939   2.537 -0.3945 -0.7664  1.3662
  162DOPC  H13S22293   3.170   4.042   2.661 -0.9889  1.2216 -0.5883
  162DOPC  C21422294   3.277   4.164   2.526 -0.0455  0.1781  0.3895
  162DOPC  H14R22295   3.214   4.252   2.553 -0.1455  0.0829  0.4705
  162DOPC  H14S22296   3.291   4.172   2.416  0.0046  1.2584  0.4615
  162DOPC  C21522297   3.410   4.187   2.596  0.3048 -0.1363 -0.5344
  162DOPC  H15R22298   3.458   4.280   2.559  3.5715 -2.3862 -2.4461
  162DOPC  H15S22299   3.489   4.115   2.567  2.4481  1.3431  1.2730
  162DOPC  C21622300   3.405   4.175   2.753  0.1958  0.7319  0.3735
  162DOPC  H16R22301   3.509   4.191   2.789  0.9483  0.2757 -1.4529
  162DOPC  H16S22302   3.377   4.071   2.783  0.4544 -0.1544 -2.2051
  162DOPC  C21722303   3.306   4.271   2.825  0.3548 -0.0518 -0.0346
  162DOPC  H17R22304   3.205   4.242   2.790  0.8508 -1.6890 -0.1991
  162DOPC  H17S22305   3.327   4.374   2.791  0.4411 -0.6530 -1.8913
  162DOPC  C21822306   3.304   4.257   2.979 -0.6075 -0.1698 -0.2530
  162DOPC  H18R22307   3.407   4.232   3.013 -0.3661  0.7752 -0.2864
  162DOPC  H18S22308   3.236   4.170   2.993 -0.8600 -0.0330 -0.6280
  162DOPC  H18T22309   3.255   4.349   3.018  0.9368  0.2612  0.7650
  162DOPC   C3322310   2.556   3.781   2.060  0.7225 -0.3164 -0.2563
  162DOPC   H3X22311   2.491   3.821   1.979  0.5553  1.1831  0.5910
  162DOPC   H3Y22312   2.649   3.841   2.050  1.1047 -1.1767 -2.5395
  162DOPC   C3422313   2.482   3.800   2.186 -0.2212  0.0098 -0.7696
  162DOPC   H4X22314   2.513   3.732   2.268 -0.6442  1.3514  0.5584
  162DOPC   H4Y22315   2.375   3.778   2.168  0.0611 -1.1725 -1.0743
  162DOPC   C3522316   2.511   3.944   2.247  0.1503 -0.3459  0.0168
  162DOPC   H5X22317   2.451   4.018   2.190  1.3570  1.3811  0.9055
  162DOPC   H5Y22318   2.619   3.973   2.246  0.2929 -0.8761 -0.2095
  162DOPC   C3622319   2.457   3.972   2.396  0.8381  0.0398 -0.6235
  162DOPC   H6X22320   2.353   3.937   2.409  1.1602 -0.5447  0.5397
  162DOPC   H6Y22321   2.515   3.905   2.463 -1.6177 -0.4476  1.1422
  162DOPC   C3722322   2.480   4.122   2.444 -0.4383 -0.0965 -0.6099
  162DOPC   H7X22323   2.579   4.159   2.410 -0.1684 -0.3371 -0.1026
  162DOPC   H7Y22324   2.399   4.184   2.401  0.7134  1.9932  0.1097
  162DOPC   C3822325   2.462   4.131   2.599 -0.5982  0.3471  0.3788
  162DOPC   H8X22326   2.361   4.101   2.635 -0.2293 -1.0282  0.3397
  162DOPC   H8Y22327   2.479   4.235   2.634  1.0262  0.3790 -0.4628
  162DOPC   C3922328   2.568   4.061   2.674  0.0693 -0.1468 -0.9158
  162DOPC   H9X22329   2.668   4.088   2.636 -0.2009  0.4359 -1.2149
  162DOPC  C31022330   2.550   3.984   2.777 -0.0887  0.8616  0.5782
  162DOPC  H10X22331   2.638   3.948   2.833  0.4864 -1.7097 -1.7601
  162DOPC  C31122332   2.409   3.944   2.817  0.0834  0.0314 -0.6410
  162DOPC  H11X22333   2.345   3.900   2.738 -0.3341 -1.1910  0.3357
  162DOPC  H11Y22334   2.361   4.039   2.847 -0.5155 -0.9709  1.8678
  162DOPC  C31222335   2.413   3.841   2.930  0.9135 -0.3023  0.6147
  162DOPC  H12X22336   2.309   3.828   2.968  1.8959 -0.8911  3.3159
  162DOPC  H12Y22337   2.475   3.880   3.014 -0.8498  1.0546  1.3547
  162DOPC  C31322338   2.464   3.704   2.879 -0.3109 -0.6101 -0.6878
  162DOPC  H13X22339   2.402   3.678   2.790 -0.3921 -0.6072 -0.6315
  162DOPC  H13Y22340   2.570   3.726   2.854  0.0318  1.2811  1.9739
  162DOPC  C31422341   2.445   3.589   2.983  0.0681  0.7416  0.0244
  162DOPC  H14X22342   2.338   3.564   3.003  0.6058  0.4956  2.8838
  162DOPC  H14Y22343   2.490   3.499   2.936 -2.5425 -0.0397 -1.1880
  162DOPC  C31522344   2.522   3.611   3.106 -0.1873  0.3322 -0.5553
  162DOPC  H15X22345   2.492   3.692   3.175  0.8196 -0.8981  1.4331
  162DOPC  H15Y22346   2.628   3.636   3.083  0.4384 -0.5431  1.1474
  162DOPC  C31622347   2.525   3.486   3.194 -0.9335  0.3731  0.1868
  162DOPC  H16X22348   2.423   3.463   3.233 -0.8456 -1.3752 -0.5642
  162DOPC  H16Y22349   2.546   3.412   3.115 -1.9418  3.0698 -2.8038
  162DOPC  C31722350   2.634   3.475   3.298 -0.0871  0.0964 -0.0536
  162DOPC  H17X22351   2.732   3.453   3.250  1.4165  1.9223  2.0076
  162DOPC  H17Y22352   2.652   3.557   3.370 -0.4817 -1.2662  1.6733
  162DOPC  C31822353   2.612   3.351   3.386 -0.0320  0.6723 -0.4459
  162DOPC  H18X22354   2.586   3.267   3.319  2.9775 -0.2884 -0.5317
  162DOPC  H18Y22355   2.707   3.327   3.438 -1.5687 -1.2712  1.7190
  162DOPC  H18Z22356   2.530   3.372   3.458 -0.8643 -0.5204 -1.0200
  163DOPC     N22357   0.500   2.773   1.287 -0.7972 -0.4101 -0.3557
  163DOPC   C1222358   0.445   2.767   1.432 -0.5138  0.2350  0.0945
  163DOPC  H12A22359   0.343   2.733   1.431 -0.6037  0.5215 -0.6281
  163DOPC  H12B22360   0.425   2.869   1.461 -1.4903  0.6355 -1.8307
  163DOPC   C1322361   0.515   2.632   1.227 -0.2423  0.0728 -0.4784
  163DOPC  H13A22362   0.414   2.594   1.218  0.6450 -2.5553 -0.0817
  163DOPC  H13B22363   0.571   2.629   1.135 -1.0370  1.5031 -1.0493
  163DOPC  H13C22364   0.560   2.569   1.301  0.2185 -1.3481 -1.9075
  163DOPC   C1422365   0.636   2.832   1.285 -0.2642 -0.0592 -0.4030
  163DOPC  H14A22366   0.714   2.767   1.321  1.7493  1.7703 -1.2426
  163DOPC  H14B22367   0.665   2.861   1.186 -1.5821  1.7180 -0.3135
  163DOPC  H14C22368   0.636   2.925   1.340 -3.3256 -0.2059  0.0491
  163DOPC   C1522369   0.413   2.860   1.199 -0.0796 -0.6062  0.4496
  163DOPC  H15A22370   0.475   2.912   1.128 -1.9415  0.3550 -0.5545
  163DOPC  H15B22371   0.362   2.927   1.267  0.3945 -0.5017  0.7038
  163DOPC  H15C22372   0.343   2.790   1.156  0.2880 -1.6189  1.4447
  163DOPC   C1122373   0.522   2.696   1.541  0.8294  0.2069  0.1826
  163DOPC  H11A22374   0.617   2.748   1.565 -0.3316  1.6742  1.8437
  163DOPC  H11B22375   0.464   2.704   1.636  1.9525  0.3431  0.8657
  163DOPC     P22376   0.485   2.437   1.549 -0.3884  0.0156 -0.4429
  163DOPC   O1322377   0.544   2.309   1.503 -0.0400 -0.1986 -0.5474
  163DOPC   O1422378   0.346   2.469   1.522 -1.2020  0.2955  0.3336
  163DOPC   O1222379   0.572   2.564   1.508  0.2644  0.2641 -0.4597
  163DOPC   O1122380   0.491   2.443   1.706  0.3999 -0.0924  0.1988
  163DOPC    C122381   0.620   2.445   1.764  0.2458 -0.2860 -0.0711
  163DOPC    HA22382   0.661   2.548   1.758  1.6532 -0.8184 -0.1949
  163DOPC    HB22383   0.688   2.365   1.726 -0.6587 -0.2059 -1.9355
  163DOPC    C222384   0.606   2.413   1.921  0.3407  0.3221 -0.6752
  163DOPC    HS22385   0.559   2.312   1.925 -2.6808  1.6377  0.4886
  163DOPC   O2122386   0.529   2.514   1.989  0.2257  0.0009 -0.1359
  163DOPC   C2122387   0.454   2.467   2.089 -0.0031 -0.5408  0.5267
  163DOPC   O2222388   0.441   2.347   2.117  0.3241 -0.5035 -0.0823
  163DOPC   C2222389   0.402   2.587   2.169 -0.3882  0.4060  0.6959
  163DOPC   H2R22390   0.294   2.576   2.142 -0.0378 -3.1136  0.3183
  163DOPC   H2S22391   0.448   2.685   2.142  0.1764 -0.1673 -0.5012
  163DOPC    C322392   0.743   2.394   1.988 -0.2131  0.3970 -0.1306
  163DOPC    HX22393   0.793   2.493   1.997  0.9997 -0.1931 -0.1383
  163DOPC    HY22394   0.821   2.343   1.928  0.3852  1.4792 -0.2877
  163DOPC   O3122395   0.738   2.338   2.122 -0.0033 -0.0572 -0.3178
  163DOPC   C3122396   0.726   2.208   2.135 -0.3650  0.1636  0.2613
  163DOPC   O3222397   0.723   2.126   2.041  0.0661 -0.4089  0.1299
  163DOPC   C3222398   0.708   2.183   2.286  0.3862  0.2913  0.2259
  163DOPC   H2X22399   0.803   2.217   2.333  0.0040  0.3221  1.0020
  163DOPC   H2Y22400   0.633   2.259   2.318 -0.1483  0.3323 -1.0853
  163DOPC   C2322401   0.409   2.570   2.322 -0.1922 -0.3443 -0.1926
  163DOPC   H3R22402   0.482   2.642   2.365  0.1179 -0.8195  0.0840
  163DOPC   H3S22403   0.431   2.465   2.353 -0.7875 -0.7185 -0.9871
  163DOPC   C2422404   0.273   2.620   2.386  0.4183  0.0863  0.3061
  163DOPC   H4R22405   0.181   2.577   2.340 -0.0864  2.1425 -0.6914
  163DOPC   H4S22406   0.256   2.729   2.383 -1.3540 -0.0108  3.1154
  163DOPC   C2522407   0.259   2.574   2.527  0.4271  0.1635  0.6828
  163DOPC   H5R22408   0.327   2.631   2.594 -0.5897  0.4897  1.4554
  163DOPC   H5S22409   0.287   2.467   2.532 -0.5629 -0.1785 -0.5459
  163DOPC   C2622410   0.120   2.585   2.582 -0.1053  0.7189 -0.7421
  163DOPC   H6R22411   0.083   2.481   2.591 -0.0301  0.6956 -0.6960
  163DOPC   H6S22412   0.054   2.627   2.503 -2.6542  1.7938  1.7701
  163DOPC   C2722413   0.107   2.671   2.709 -0.1872 -0.2284 -0.4145
  163DOPC   H7R22414   8.533   2.687   2.705 -0.2228 -0.6612 -2.2693
  163DOPC   H7S22415   0.169   2.762   2.691  3.0930 -2.2549 -0.0849
  163DOPC   C2822416   0.148   2.587   2.835  0.1421  0.4650  0.0680
  163DOPC   H8R22417   0.258   2.571   2.829  0.1595  0.6955 -0.2162
  163DOPC   H8S22418   0.100   2.487   2.826  0.0641  0.5536 -0.5305
  163DOPC   C2922419   0.113   2.674   2.952 -0.0257  0.7089 -0.0616
  163DOPC   H9R22420   0.010   2.710   2.958 -0.1656  0.2410  0.4288
  163DOPC  C21022421   0.195   2.707   3.055  0.0032  0.0191  0.0958
  163DOPC  H10R22422   0.155   2.766   3.139  1.2301  2.4102 -0.9134
  163DOPC  C21122423   0.347   2.686   3.067  0.3220 -0.5688 -0.2385
  163DOPC  H11R22424   0.404   2.771   3.109  1.0275 -1.0807 -0.1482
  163DOPC  H11S22425   0.397   2.671   2.969  4.4475 -1.3990  1.7978
  163DOPC  C21222426   0.370   2.559   3.145 -0.6079 -0.4598  0.2601
  163DOPC  H12R22427   0.335   2.476   3.080  1.7162  0.0113 -1.7658
  163DOPC  H12S22428   0.333   2.570   3.249 -0.7847 -0.0634  0.1567
  163DOPC  C21322429   0.516   2.541   3.167  0.1907 -0.3474 -0.0307
  163DOPC  H13R22430   0.572   2.628   3.208  0.7360 -0.6376 -0.1664
  163DOPC  H13S22431   0.551   2.515   3.065  0.4573  2.6916 -0.8025
  163DOPC  C21422432   0.543   2.431   3.269  0.1708 -0.3196  0.5581
  163DOPC  H14R22433   0.500   2.340   3.223  1.7361 -0.2701 -1.0891
  163DOPC  H14S22434   0.478   2.444   3.359  1.4950  1.0723  1.3788
  163DOPC  C21522435   0.687   2.407   3.299 -0.2170  0.3611  0.1784
  163DOPC  H15R22436   0.729   2.506   3.325  0.5528  0.9653 -2.9646
  163DOPC  H15S22437   0.741   2.381   3.206 -1.1877  0.7384 -0.5036
  163DOPC  C21622438   0.704   2.294   3.403 -0.3271 -0.3189  0.6169
  163DOPC  H16R22439   0.661   2.204   3.352  0.7378 -1.2410  1.3056
  163DOPC  H16S22440   0.646   2.316   3.495 -1.0065  0.3420  0.0417
  163DOPC  C21722441   0.841   2.261   3.439 -0.1438 -0.3645 -0.1769
  163DOPC  H17R22442   0.892   2.236   3.344 -0.8402 -0.5989 -0.4920
  163DOPC  H17S22443   0.858   2.169   3.499 -1.2008 -1.3173 -1.2905
  163DOPC  C21822444   0.921   2.385   3.498  0.7970  0.5234  0.4036
  163DOPC  H18R22445   1.017   2.345   3.537 -0.2765 -1.2825  1.3216
  163DOPC  H18S22446   0.869   2.429   3.586  1.5925 -1.1874  1.7887
  163DOPC  H18T22447   0.945   2.463   3.422 -0.1358 -0.0194 -0.4782
  163DOPC   C3322448   0.666   2.039   2.328  0.0144  0.0864  0.0216
  163DOPC   H3X22449   0.762   1.984   2.318  0.8596  1.5612 -0.3489
  163DOPC   H3Y22450   0.594   1.988   2.261  1.6204 -3.2888  0.6376
  163DOPC   C3422451   0.632   2.026   2.474  0.1323  0.0041  1.1459
  163DOPC   H4X22452   0.727   2.062   2.519  1.0245 -1.2935  0.3555
  163DOPC   H4Y22453   0.618   1.918   2.496  0.7909 -0.3568 -0.0939
  163DOPC   C3522454   0.505   2.101   2.513 -0.2628  0.7990 -0.0591
  163DOPC   H5X22455   0.529   2.209   2.501  0.9632  0.6437  0.8115
  163DOPC   H5Y22456   0.489   2.082   2.622  0.1982 -0.6141 -0.2202
  163DOPC   C3622457   0.381   2.074   2.431  0.8455 -0.3728  0.5561
  163DOPC   H6X22458   0.396   2.111   2.327  0.8104 -2.6109 -0.2873
  163DOPC   H6Y22459   0.352   1.967   2.437 -0.1958 -0.1502 -0.1418
  163DOPC   C3722460   0.258   2.160   2.479 -0.2577  0.7277 -0.0202
  163DOPC   H7X22461   0.238   2.137   2.586 -0.2919  1.8503  0.2332
  163DOPC   H7Y22462   0.302   2.262   2.479  0.1673  0.5548 -0.9782
  163DOPC   C3822463   0.136   2.149   2.390  0.3262  0.0558 -0.1514
  163DOPC   H8X22464   0.168   2.139   2.283 -2.4019 -0.5734 -0.9775
  163DOPC   H8Y22465   0.076   2.242   2.397  0.2550  0.1134 -1.2359
  163DOPC   C3922466   0.065   2.017   2.430 -0.5130  0.5447  0.9804
  163DOPC   H9X22467   0.120   1.929   2.396  2.7781  1.9621  2.2504
  163DOPC  C31022468   8.491   1.991   2.500 -0.5179  0.6767 -0.1686
  163DOPC  H10X22469   8.461   1.888   2.526  0.3713  0.0222 -1.5651
  163DOPC  C31122470   8.395   2.094   2.546  0.7410 -0.7634  0.5601
  163DOPC  H11X22471   8.303   2.073   2.487 -0.2664  0.4782  1.6229
  163DOPC  H11Y22472   8.429   2.194   2.513  0.3125 -1.0897 -0.9892
  163DOPC  C31222473   8.374   2.109   2.694  0.3036  0.0835 -0.4950
  163DOPC  H12X22474   8.365   2.006   2.736  1.5355  0.6542  1.2757
  163DOPC  H12Y22475   8.279   2.165   2.709  0.3914 -0.1506  1.1095
  163DOPC  C31322476   8.493   2.174   2.769  0.4540 -0.5238 -0.2713
  163DOPC  H13X22477   0.054   2.134   2.731  1.3711  0.2682  1.1170
  163DOPC  H13Y22478   8.500   2.281   2.741 -0.3442 -0.4223 -0.1054
  163DOPC  C31422479   8.485   2.159   2.916  0.1547 -0.6706 -1.2547
  163DOPC  H14X22480   8.529   2.062   2.949 -1.3438 -0.4665  1.7050
  163DOPC  H14Y22481   0.005   2.244   2.962 -0.2670 -1.3024  0.5227
  163DOPC  C31522482   8.338   2.175   2.974  0.3748 -0.0235  0.0893
  163DOPC  H15X22483   8.276   2.086   2.951  2.7310 -1.1039 -2.6439
  163DOPC  H15Y22484   8.283   2.256   2.920  1.4058 -0.8175 -2.2848
  163DOPC  C31622485   8.340   2.207   3.121  0.1646  0.1908  0.7622
  163DOPC  H16X22486   8.412   2.142   3.174 -0.2238 -0.3025  0.6877
  163DOPC  H16Y22487   8.389   2.307   3.124  1.1289 -0.2896  1.3758
  163DOPC  C31722488   8.207   2.190   3.202 -0.0958  0.0137  0.3150
  163DOPC  H17X22489   8.140   2.271   3.169 -0.1671 -0.3950 -0.5627
  163DOPC  H17Y22490   8.156   2.092   3.187 -0.0302  0.2176 -1.4649
  163DOPC  C31822491   8.227   2.211   3.351 -0.5214  0.0372 -0.0889
  163DOPC  H18X22492   8.288   2.126   3.390  1.5902  1.0676 -0.9516
  163DOPC  H18Y22493   8.282   2.307   3.360  0.0225 -0.3821  1.3255
  163DOPC  H18Z22494   8.127   2.212   3.399 -2.3333  1.5142 -3.5619
  164DOPC     N22495   1.186   4.780   1.207  1.0619  0.2135  0.1397
  164DOPC   C1222496   1.221   4.833   1.345 -0.4017  0.4898  0.2561
  164DOPC  H12A22497   1.140   4.887   1.391 -0.5962  0.8635 -0.5087
  164DOPC  H12B22498   1.306   4.898   1.332 -0.6975  0.6210 -1.1009
  164DOPC   C1322499   1.050   4.710   1.220  0.0722  0.3273  0.1693
  164DOPC  H13A22500   1.077   4.626   1.283  0.7076 -0.4215 -1.0737
  164DOPC  H13B22501   0.976   4.779   1.257  0.8610  1.0649  0.3891
  164DOPC  H13C22502   1.018   4.675   1.123  0.2598  1.0787 -0.1689
  164DOPC   C1422503   1.282   4.687   1.148 -0.6502  0.1179  1.0021
  164DOPC  H14A22504   1.277   4.593   1.201 -2.0531  1.5130  3.5475
  164DOPC  H14B22505   1.264   4.658   1.045 -0.6335 -0.2169  1.0919
  164DOPC  H14C22506   1.382   4.727   1.157 -0.2288  0.0831 -2.2256
  164DOPC   C1522507   1.163   4.892   1.104 -0.1376 -0.3811 -0.0240
  164DOPC  H15A22508   1.156   4.855   1.003 -1.8840 -1.8127  0.5906
  164DOPC  H15B22509   1.247   4.960   1.108  0.2660 -0.7298 -1.7185
  164DOPC  H15C22510   1.073   4.946   1.127 -0.6614 -1.3326  0.1852
  164DOPC   C1122511   1.263   4.730   1.452 -0.3190 -0.0702 -0.3867
  164DOPC  H11A22512   1.345   4.661   1.424 -0.9307 -0.5767 -0.9439
  164DOPC  H11B22513   1.305   4.796   1.532 -2.2118  0.8979 -0.1091
  164DOPC     P22514   1.048   4.714   1.585 -0.0850  0.6890 -0.1305
  164DOPC   O1322515   0.921   4.635   1.602 -0.1779 -0.2297  0.1449
  164DOPC   O1422516   1.027   4.858   1.561  0.4821  0.2352 -0.0501
  164DOPC   O1222517   1.152   4.652   1.488  0.1392 -0.2306  0.5686
  164DOPC   O1122518   1.116   4.717   1.736 -0.0183 -0.3133 -0.0125
  164DOPC    C122519   1.197   4.597   1.759 -0.3275  0.1253 -0.2478
  164DOPC    HA22520   1.303   4.622   1.783 -0.0123 -1.4948  0.1680
  164DOPC    HB22521   1.204   4.531   1.669  3.9850  0.7012 -0.5353
  164DOPC    C222522   1.137   4.516   1.879  0.2003  0.3697  0.4355
  164DOPC    HS22523   1.030   4.495   1.857  0.5272 -3.6588  1.9284
  164DOPC   O2122524   1.143   4.597   1.999  0.1667 -0.2624  0.1685
  164DOPC   C2122525   1.048   4.578   2.088 -0.1859  0.4321 -0.0796
  164DOPC   O2222526   0.963   4.492   2.074 -0.0238  0.3343 -0.0425
  164DOPC   C2222527   1.079   4.659   2.211 -0.0043 -0.0240  0.2806
  164DOPC   H2R22528   1.115   4.759   2.180 -0.2155 -0.1237 -0.2831
  164DOPC   H2S22529   1.160   4.598   2.256 -1.7556 -0.6116  2.8953
  164DOPC    C322530   1.222   4.377   1.904 -0.3530  0.0120  0.2176
  164DOPC    HX22531   1.225   4.315   1.811 -1.6845 -1.9404  1.4078
  164DOPC    HY22532   1.173   4.318   1.985  1.5298 -1.9093  0.0500
  164DOPC   O3122533   1.360   4.413   1.922 -0.2136  0.2982 -1.0946
  164DOPC   C3122534   1.402   4.408   2.056 -0.0813  0.2360  0.9248
  164DOPC   O3222535   1.332   4.370   2.148 -0.8813  0.2864  0.2709
  164DOPC   C3222536   1.543   4.464   2.069 -0.1570  0.1014  0.2657
  164DOPC   H2X22537   1.606   4.373   2.060  1.0121  0.9667 -0.6414
  164DOPC   H2Y22538   1.568   4.530   1.983  0.0609  0.3216  0.4948
  164DOPC   C2322539   0.970   4.685   2.313  0.1738 -0.0393  0.8194
  164DOPC   H3R22540   0.899   4.599   2.318  1.4587 -1.1802  0.2018
  164DOPC   H3S22541   0.909   4.770   2.276 -1.8020 -1.9013 -0.5020
  164DOPC   C2422542   1.020   4.719   2.452  0.0015  0.1972  0.0822
  164DOPC   H4R22543   1.100   4.795   2.435  0.3426 -0.3773 -0.9893
  164DOPC   H4S22544   1.061   4.623   2.488 -1.7233 -2.2331 -3.7074
  164DOPC   C2522545   0.922   4.775   2.560 -0.1922  0.2007 -0.1559
  164DOPC   H5R22546   0.838   4.704   2.549 -1.0009  1.0068  0.6579
  164DOPC   H5S22547   0.879   4.873   2.533  0.4503  0.3098 -0.8252
  164DOPC   C2622548   0.987   4.771   2.700  0.5474 -0.8197  0.0054
  164DOPC   H6R22549   1.073   4.841   2.701  0.4785 -0.7344  0.0370
  164DOPC   H6S22550   1.024   4.670   2.727 -3.4701 -1.8938  2.4658
  164DOPC   C2722551   0.892   4.817   2.810 -0.6559  0.2652  0.8172
  164DOPC   H7R22552   0.923   4.768   2.905 -0.5811  0.8874  1.1168
  164DOPC   H7S22553   0.789   4.781   2.788 -1.0226 -0.0030  2.8138
  164DOPC   C2822554   0.894   4.969   2.838 -0.0665 -0.1297 -0.1888
  164DOPC   H8R22555   0.859   5.024   2.748  1.0274  0.5492 -0.2076
  164DOPC   H8S22556   0.997   5.005   2.859  0.2408 -0.8858 -0.3788
  164DOPC   C2922557   0.797   4.998   2.953  0.2196  0.5607  0.3707
  164DOPC   H9R22558   0.699   5.040   2.928  0.1782 -0.4575 -1.3317
  164DOPC  C21022559   0.835   4.987   3.076  0.3278  0.1254  0.1437
  164DOPC  H10R22560   0.755   5.013   3.146 -2.5013  1.0961 -3.1980
  164DOPC  C21122561   0.975   4.967   3.127  0.8930  0.0854 -0.3853
  164DOPC  H11R22562   1.033   4.925   3.042 -0.4572  1.8937 -2.3171
  164DOPC  H11S22563   0.974   4.901   3.216 -1.3317 -1.4658 -1.4514
  164DOPC  C21222564   1.037   5.102   3.154  0.3240  0.4252  0.1904
  164DOPC  H12R22565   0.965   5.164   3.212  0.2908  0.1881  0.4010
  164DOPC  H12S22566   1.053   5.143   3.052 -0.7210 -0.8260 -0.4961
  164DOPC  C21322567   1.173   5.088   3.230 -0.1428  0.0962  0.2615
  164DOPC  H13R22568   1.238   5.019   3.172 -1.4962 -1.4258  0.4908
  164DOPC  H13S22569   1.147   5.050   3.331 -1.2094  0.6343  0.2127
  164DOPC  C21422570   1.236   5.228   3.256 -0.1299  0.4475  0.6192
  164DOPC  H14R22571   1.312   5.240   3.336  0.6632 -0.3139  0.0086
  164DOPC  H14S22572   1.150   5.291   3.285 -0.2877  1.0024 -0.9553
  164DOPC  C21522573   1.295   5.295   3.126  0.5244 -0.7862 -0.7922
  164DOPC  H15R22574   1.216   5.301   3.048 -0.1068  0.9043 -0.0698
  164DOPC  H15S22575   1.384   5.239   3.091  0.7076  0.1747 -1.9209
  164DOPC  C21622576   1.346   5.435   3.159 -0.2312  0.5464 -0.1325
  164DOPC  H16R22577   1.427   5.457   3.087 -0.2210  1.7789  0.2432
  164DOPC  H16S22578   1.396   5.436   3.258  1.6333 -1.2713 -0.9732
  164DOPC  C21722579   1.244   5.547   3.146  0.3281 -0.3015  0.0520
  164DOPC  H17R22580   1.160   5.524   3.214 -1.8682 -0.6469 -2.5942
  164DOPC  H17S22581   1.205   5.550   3.042 -1.7888 -0.2440  0.8116
  164DOPC  C21822582   1.306   5.692   3.165  0.0199 -0.2522  0.6808
  164DOPC  H18R22583   1.362   5.695   3.261 -1.3944  2.4212  1.5065
  164DOPC  H18S22584   1.226   5.769   3.159 -2.1753 -2.1771  2.9039
  164DOPC  H18T22585   1.373   5.706   3.078 -1.3234 -1.3116 -0.5828
  164DOPC   C3322586   1.572   4.532   2.202  0.6198  0.2765 -0.8828
  164DOPC   H3X22587   1.680   4.541   2.224  1.2428 -1.6570 -2.7620
  164DOPC   H3Y22588   1.528   4.485   2.292  1.4099  2.9746  1.0288
  164DOPC   C3422589   1.505   4.672   2.210  0.1643 -0.4031 -0.1453
  164DOPC   H4X22590   1.412   4.668   2.151  0.3930  0.4510 -0.5791
  164DOPC   H4Y22591   1.577   4.737   2.156 -0.3427 -1.4101 -2.0970
  164DOPC   C3522592   1.474   4.731   2.356 -0.1573  0.2627  0.7005
  164DOPC   H5X22593   1.570   4.742   2.411  0.7494 -0.6353 -0.6197
  164DOPC   H5Y22594   1.413   4.651   2.403 -2.9283  2.1379  0.5558
  164DOPC   C3622595   1.402   4.861   2.354  0.5197 -0.3758  0.5086
  164DOPC   H6X22596   1.469   4.932   2.301 -0.3373  1.9984  2.4160
  164DOPC   H6Y22597   1.310   4.866   2.292  0.9959 -0.2978 -0.2039
  164DOPC   C3722598   1.357   4.919   2.496 -0.6043  0.5401  1.1059
  164DOPC   H7X22599   1.301   5.015   2.483 -0.6012  0.3699 -0.3806
  164DOPC   H7Y22600   1.291   4.844   2.544 -0.4730  1.4942  2.8388
  164DOPC   C3822601   1.473   4.930   2.600  0.0898 -0.0394 -0.0893
  164DOPC   H8X22602   1.566   4.954   2.544  0.7088 -1.0434  0.4736
  164DOPC   H8Y22603   1.502   4.827   2.630  3.6863  1.0469  0.7511
  164DOPC   C3922604   1.443   5.020   2.717  0.2542 -0.1412 -0.4910
  164DOPC   H9X22605   1.499   5.114   2.714  1.0359 -0.4240  2.4389
  164DOPC  C31022606   1.369   4.998   2.827  0.5938 -0.5662  0.2670
  164DOPC  H10X22607   1.384   5.065   2.913 -0.9934 -1.0730  0.9760
  164DOPC  C31122608   1.307   4.868   2.866 -0.5423 -0.1436  0.4491
  164DOPC  H11X22609   1.272   4.818   2.774  2.1594  0.5000 -1.0417
  164DOPC  H11Y22610   1.225   4.871   2.941 -2.0319 -0.1168 -1.1318
  164DOPC  C31222611   1.413   4.774   2.930 -0.1924  0.2819 -0.0587
  164DOPC  H12X22612   1.504   4.769   2.867 -0.2161  1.7687 -0.2449
  164DOPC  H12Y22613   1.359   4.679   2.950 -2.4622  1.4116 -0.5639
  164DOPC  C31322614   1.469   4.826   3.073  1.1094  0.0997 -1.1093
  164DOPC  H13X22615   1.565   4.774   3.094 -1.2023 -4.4242 -0.5164
  164DOPC  H13Y22616   1.479   4.935   3.089  0.1737 -0.0395  0.6690
  164DOPC  C31422617   1.386   4.761   3.183 -0.0698 -0.8325 -1.0288
  164DOPC  H14X22618   1.369   4.835   3.264  0.8665  0.5654 -2.0587
  164DOPC  H14Y22619   1.281   4.762   3.146  0.5940 -1.2577 -3.0459
  164DOPC  C31522620   1.431   4.626   3.230 -0.5338 -0.3029  0.2740
  164DOPC  H15X22621   1.526   4.626   3.288 -1.2035  0.5780  1.4047
  164DOPC  H15Y22622   1.448   4.560   3.142 -0.9740 -1.3639  0.9505
  164DOPC  C31622623   1.329   4.560   3.326 -0.5842  0.0809 -0.7086
  164DOPC  H16X22624   1.392   4.484   3.377  0.4967  1.0492 -0.5747
  164DOPC  H16Y22625   1.292   4.636   3.398  2.1539  3.1702 -2.3053
  164DOPC  C31722626   1.209   4.494   3.256  0.0725  0.1559  0.5048
  164DOPC  H17X22627   1.138   4.577   3.236 -1.2876 -1.0828  0.0481
  164DOPC  H17Y22628   1.241   4.448   3.160 -2.0936 -0.0020 -0.1868
  164DOPC  C31822629   1.145   4.396   3.347  0.6085  0.1905 -0.1978
  164DOPC  H18X22630   1.109   4.453   3.436  1.4510  0.7953 -0.2233
  164DOPC  H18Y22631   1.052   4.350   3.308 -0.1568  1.3532  0.1974
  164DOPC  H18Z22632   1.216   4.323   3.392  2.7057  2.2639  0.0531
  165DOPC     N22633   3.066   0.646   1.134  0.0262  0.3372 -0.4255
  165DOPC   C1222634   3.016   0.522   1.201 -0.1199 -0.6185 -0.0104
  165DOPC  H12A22635   3.101   0.457   1.215 -0.1667 -1.2921 -2.4389
  165DOPC  H12B22636   2.943   0.475   1.136 -0.6611  0.6985 -0.3986
  165DOPC   C1322637   3.148   0.598   1.019  0.8065  0.0529 -0.2204
  165DOPC  H13A22638   3.203   0.685   0.985 -1.3732  0.8790 -1.8488
  165DOPC  H13B22639   3.200   0.511   1.055 -1.8963 -0.6785  2.2776
  165DOPC  H13C22640   3.086   0.561   0.939  0.6518 -0.6427  0.2117
  165DOPC   C1422641   3.148   0.742   1.220 -0.5614  0.1502  0.8536
  165DOPC  H14A22642   3.173   0.828   1.161  0.1702 -0.5018  0.1863
  165DOPC  H14B22643   3.111   0.762   1.320  0.9531  1.0716  1.2637
  165DOPC  H14C22644   3.252   0.718   1.235  0.3030  3.4001  0.6444
  165DOPC   C1522645   2.952   0.721   1.064  0.4994  0.6145 -0.1120
  165DOPC  H15A22646   2.991   0.795   0.996 -3.2085  1.7586 -1.2312
  165DOPC  H15B22647   2.884   0.761   1.137  0.8518 -0.6511  0.9647
  165DOPC  H15C22648   2.898   0.651   1.002  0.1308 -1.9390  2.8449
  165DOPC   C1122649   2.952   0.539   1.345 -0.0721 -0.5592  0.0136
  165DOPC  H11A22650   2.942   0.436   1.387  2.4628 -0.9054 -0.0485
  165DOPC  H11B22651   3.017   0.596   1.414 -0.5670  0.9196 -0.7120
  165DOPC     P22652   2.705   0.521   1.290  0.0570 -0.3408  0.2664
  165DOPC   O1322653   2.745   0.447   1.165  0.0685 -0.3407 -0.2969
  165DOPC   O1422654   2.608   0.632   1.282 -0.4255  0.6349 -1.1517
  165DOPC   O1222655   2.831   0.602   1.325  0.0357 -0.0669 -0.1667
  165DOPC   O1122656   2.678   0.421   1.409  0.2237  0.3402  0.1525
  165DOPC    C122657   2.638   0.487   1.534 -0.0811  0.1025 -0.0202
  165DOPC    HA22658   2.530   0.467   1.553 -0.0960  0.6775  0.5033
  165DOPC    HB22659   2.660   0.595   1.544 -2.5860  0.6899 -0.1968
  165DOPC    C222660   2.721   0.425   1.655  0.0460  0.5021  0.1704
  165DOPC    HS22661   2.826   0.458   1.644  0.3373 -0.6793 -0.8157
  165DOPC   O2122662   2.725   0.277   1.649  0.0016 -0.0352  0.8835
  165DOPC   C2122663   2.827   0.217   1.705 -0.8547  0.0308  0.6792
  165DOPC   O2222664   2.932   0.275   1.738  0.7990 -0.2008 -0.0877
  165DOPC   C2222665   2.811   0.068   1.692  0.0792 -0.4555 -0.0504
  165DOPC   H2R22666   2.836   0.034   1.589 -1.2045 -0.2329 -0.4527
  165DOPC   H2S22667   2.706   0.041   1.718  0.1508 -0.4421  0.2504
  165DOPC    C322668   2.680   0.484   1.798  0.0504 -0.3627 -0.2442
  165DOPC    HX22669   2.570   0.478   1.782 -0.0510  1.7332 -0.6716
  165DOPC    HY22670   2.694   0.595   1.796 -0.1067 -0.3400 -0.0748
  165DOPC   O3122671   2.726   0.415   1.911 -0.0145  0.6936  0.1853
  165DOPC   C3122672   2.834   0.467   1.974 -0.0144 -0.4634  0.5046
  165DOPC   O3222673   2.889   0.573   1.950 -0.0312  0.2766 -0.1525
  165DOPC   C3222674   2.883   0.376   2.092 -0.0841  0.5868 -0.3029
  165DOPC   H2X22675   2.865   0.440   2.181  1.1959  0.3539  0.1436
  165DOPC   H2Y22676   2.831   0.278   2.089  1.5743 -0.2990 -1.7050
  165DOPC   C2322677   2.896   8.527   1.795  0.1007  0.2873  0.0874
  165DOPC   H3R22678   3.001   0.030   1.800 -0.0584  0.9898 -1.4116
  165DOPC   H3S22679   2.903   8.418   1.778 -0.9553 -0.0686  1.6628
  165DOPC   C2422680   2.842   8.528   1.936 -0.1757  0.0882 -0.5538
  165DOPC   H4R22681   2.763   0.071   1.935 -1.7476 -1.4373 -0.7001
  165DOPC   H4S22682   2.921   0.029   2.005  0.5305 -0.6461 -0.9692
  165DOPC   C2522683   2.772   8.401   1.991 -0.1451 -0.6761  0.0339
  165DOPC   H5R22684   2.843   8.319   2.011 -1.9219 -1.8969  1.6928
  165DOPC   H5S22685   2.690   8.359   1.929  0.0688 -0.7428 -0.2034
  165DOPC   C2622686   2.697   8.437   2.116  0.0482  0.7261 -0.7797
  165DOPC   H6R22687   2.598   8.486   2.099 -1.6035 -2.8441 -2.4577
  165DOPC   H6S22688   2.771   8.499   2.172 -0.8920  2.3123 -1.2189
  165DOPC   C2722689   2.666   8.315   2.208  0.2128  0.6504 -0.5059
  165DOPC   H7R22690   2.748   8.240   2.215 -1.7186 -1.5419 -0.4519
  165DOPC   H7S22691   2.575   8.261   2.174 -0.5513  1.4891  0.1644
  165DOPC   C2822692   2.658   8.360   2.357  0.5274  0.0742  0.9352
  165DOPC   H8R22693   2.593   8.450   2.359 -1.3675 -1.2268  0.2096
  165DOPC   H8S22694   2.764   8.374   2.387  0.9564  0.4004 -0.6440
  165DOPC   C2922695   2.592   8.263   2.445 -0.0557  0.3546 -0.1504
  165DOPC   H9R22696   2.502   8.224   2.396  0.5120 -0.4741 -0.5561
  165DOPC  C21022697   2.643   8.205   2.561  0.3627  0.1717  0.1923
  165DOPC  H10R22698   2.583   8.132   2.618  0.6510  0.0474  0.3389
  165DOPC  C21122699   2.784   8.221   2.603  0.5828  0.0406  0.9336
  165DOPC  H11R22700   2.819   8.324   2.578  3.1734 -1.1113 -0.4822
  165DOPC  H11S22701   2.846   8.161   2.534 -0.4790  0.2514 -0.2440
  165DOPC  C21222702   2.809   8.190   2.751  0.9370 -0.3382  0.6173
  165DOPC  H12R22703   2.808   8.080   2.758  0.1090 -0.3532  0.4023
  165DOPC  H12S22704   2.728   8.231   2.815 -1.1514 -2.1951 -0.6945
  165DOPC  C21322705   2.946   8.236   2.789  0.3436 -0.1185 -0.3541
  165DOPC  H13R22706   2.955   8.344   2.763 -1.1036 -0.1420 -1.0520
  165DOPC  H13S22707   3.027   8.187   2.731 -0.2036 -2.9167  1.0985
  165DOPC  C21422708   2.962   8.209   2.940  0.0598  0.0347  0.0444
  165DOPC  H14R22709   2.946   8.101   2.960 -2.7685  0.3034 -0.4234
  165DOPC  H14S22710   2.884   8.267   2.993 -1.0844 -0.6812 -0.8036
  165DOPC  C21522711   3.096   8.274   2.987  0.3514 -0.0348  0.4326
  165DOPC  H15R22712   3.105   8.379   2.951  1.3020 -0.0534  0.5906
  165DOPC  H15S22713   3.182   8.215   2.949  0.7341  1.0262 -0.4094
  165DOPC  C21622714   3.115   8.287   3.138  0.0174 -0.6991 -0.2560
  165DOPC  H16R22715   3.025   8.338   3.178  1.1406  1.3175 -0.2029
  165DOPC  H16S22716   3.207   8.346   3.155  0.3898 -0.8069 -1.7725
  165DOPC  C21722717   3.140   8.145   3.195 -0.0404 -0.3718 -0.1665
  165DOPC  H17R22718   3.216   8.091   3.134 -1.0506 -0.5507 -1.3102
  165DOPC  H17S22719   3.052   8.077   3.194  0.7676 -1.4834  1.0071
  165DOPC  C21822720   3.193   8.145   3.344 -0.3348 -0.1482  0.4615
  165DOPC  H18R22721   3.110   8.157   3.416 -0.2882 -2.2340  0.9287
  165DOPC  H18S22722   3.269   8.225   3.359  0.5377 -0.9508  0.4652
  165DOPC  H18T22723   3.238   8.051   3.381  0.9519  0.6805  1.0827
  165DOPC   C3322724   3.035   0.361   2.107  1.0987  0.4427  0.0603
  165DOPC   H3X22725   3.086   0.452   2.145  0.9380  0.3152  0.5968
  165DOPC   H3Y22726   3.091   0.343   2.013 -0.0680  0.5508 -0.6743
  165DOPC   C3422727   3.080   0.244   2.200  0.9427 -0.4926  0.2288
  165DOPC   H4X22728   3.169   0.206   2.146  1.5163  1.3385 -0.1863
  165DOPC   H4Y22729   3.006   0.165   2.176  1.6759 -0.2448 -3.3870
  165DOPC   C3522730   3.113   0.264   2.344 -0.7571  0.0289 -0.9087
  165DOPC   H5X22731   3.026   0.310   2.397 -0.6291  0.1301 -0.7873
  165DOPC   H5Y22732   3.197   0.336   2.348  0.7819 -1.7181 -0.4324
  165DOPC   C3622733   3.131   0.131   2.427 -0.3301  0.5021 -0.3180
  165DOPC   H6X22734   3.189   0.163   2.516 -0.2951  1.3461 -0.6402
  165DOPC   H6Y22735   3.031   0.101   2.466  0.2984 -0.5356  0.5563
  165DOPC   C3722736   3.197   0.016   2.349  0.6589  0.3443 -0.1356
  165DOPC   H7X22737   3.117   8.481   2.318  1.4724 -0.2285 -0.9714
  165DOPC   H7Y22738   3.249   0.046   2.256  2.0052 -1.5876 -0.0561
  165DOPC   C3822739   3.305   8.475   2.418 -0.4993  0.6809 -0.4493
  165DOPC   H8X22740   3.263   8.443   2.515 -0.8067  0.4141 -0.6699
  165DOPC   H8Y22741   3.384   0.014   2.445 -0.9511  0.7145  0.8332
  165DOPC   C3922742   3.363   8.363   2.336 -0.7967  0.0377 -1.1792
  165DOPC   H9X22743   3.326   8.351   2.233 -0.1625  0.1179 -1.4244
  165DOPC  C31022744   3.446   8.281   2.398 -0.7878  0.3740 -0.2672
  165DOPC  H10X22745   3.492   8.194   2.349  2.3589  0.5215  2.1722
  165DOPC  C31122746   3.497   8.300   2.535 -0.4139  0.0985  1.1307
  165DOPC  H11X22747   3.475   8.404   2.565  2.8821  0.9290  1.1074
  165DOPC  H11Y22748   3.608   8.298   2.540 -0.2571 -2.8571 -0.8512
  165DOPC  C31222749   3.452   8.192   2.636 -0.0118 -0.4908  0.1801
  165DOPC  H12X22750   3.342   8.183   2.648 -0.1766  1.9386  0.9792
  165DOPC  H12Y22751   3.503   8.207   2.734  0.3366  0.1023 -0.0859
  165DOPC  C31322752   3.499   8.052   2.603  0.9428  0.3921  0.4759
  165DOPC  H13X22753   3.443   8.006   2.518  1.6180 -2.4764  1.4670
  165DOPC  H13Y22754   3.606   8.048   2.574  0.2638 -1.2504 -2.2112
  165DOPC  C31422755   3.475   7.947   2.717 -0.3837 -0.2484  0.0285
  165DOPC  H14X22756   3.375   7.903   2.698 -0.2711 -1.2374  1.5624
  165DOPC  H14Y22757   3.541   7.860   2.697 -2.4039 -1.5883 -1.1668
  165DOPC  C31522758   3.494   7.988   2.861 -0.0165  0.4887  0.2978
  165DOPC  H15X22759   3.407   8.053   2.888 -1.0102 -1.6976  2.8294
  165DOPC  H15Y22760   3.593   8.038   2.871  0.1175  0.1076  0.9407
  165DOPC  C31622761   3.488   7.870   2.957 -0.1202 -0.1979  0.3411
  165DOPC  H16X22762   3.390   7.821   2.939  0.7192 -1.8387  0.0135
  165DOPC  H16Y22763   3.560   7.795   2.917 -0.3307 -0.2384  0.0299
  165DOPC  C31722764   3.501   7.892   3.104 -0.4877 -0.0634 -0.2906
  165DOPC  H17X22765   3.586   7.957   3.135 -0.3990 -1.0149  1.6606
  165DOPC  H17Y22766   3.408   7.946   3.131 -1.0246 -1.3886  0.6620
  165DOPC  C31822767   3.499   7.758   3.182 -0.3244 -0.2632 -0.1658
  165DOPC  H18X22768   3.413   7.688   3.180  0.3313 -1.0604 -0.6585
  165DOPC  H18Y22769   3.573   7.690   3.135 -1.2233  0.4729 -2.8601
  165DOPC  H18Z22770   3.528   7.780   3.287  2.2522 -1.5096 -0.5519
  166DOPC     N22771   3.283   6.683   1.319  0.0502 -0.2759  0.4737
  166DOPC   C1222772   3.200   6.715   1.442  0.4555  0.1241  0.6539
  166DOPC  H12A22773   3.094   6.727   1.423  0.1438 -0.2306  2.0857
  166DOPC  H12B22774   3.234   6.804   1.492  3.7358 -1.2144  1.0073
  166DOPC   C1322775   3.424   6.639   1.360  0.1104  0.2051  0.3965
  166DOPC  H13A22776   3.417   6.543   1.408 -2.9797 -0.6068 -1.3901
  166DOPC  H13B22777   3.475   6.629   1.266 -2.2126 -0.1282 -0.9199
  166DOPC  H13C22778   3.477   6.705   1.427 -0.6400  2.4546 -1.1024
  166DOPC   C1422779   3.293   6.797   1.225 -0.3594  0.4525 -0.1547
  166DOPC  H14A22780   3.204   6.854   1.204 -0.0532  0.8925 -0.2602
  166DOPC  H14B22781   3.362   6.871   1.263 -0.1305 -0.5955  1.6044
  166DOPC  H14C22782   3.338   6.754   1.136  0.0295 -0.8313  0.6283
  166DOPC   C1522783   3.218   6.578   1.242 -0.7473 -0.0835  0.3595
  166DOPC  H15A22784   3.180   6.498   1.304 -0.0963 -0.0827  0.7795
  166DOPC  H15B22785   3.294   6.537   1.177 -0.6337 -0.7271  0.8802
  166DOPC  H15C22786   3.137   6.611   1.179  0.5702  1.7887 -0.4281
  166DOPC   C1122787   3.195   6.599   1.543  0.9102  0.0683  0.1140
  166DOPC  H11A22788   3.299   6.566   1.562  0.8217 -2.5599 -3.0663
  166DOPC  H11B22789   3.166   6.639   1.642  1.0363  0.1207  0.1303
  166DOPC     P22790   3.120   6.347   1.574  0.4608  0.1144  0.1395
  166DOPC   O1322791   3.263   6.312   1.578 -0.5803 -0.0764 -0.0794
  166DOPC   O1422792   3.025   6.254   1.504 -0.2308  0.1443  0.1973
  166DOPC   O1222793   3.109   6.490   1.504  0.2772 -0.1748  0.2648
  166DOPC   O1122794   3.072   6.373   1.719  0.1303 -0.2474  0.0422
  166DOPC    C122795   2.927   6.403   1.737 -0.5291 -0.0553  0.5278
  166DOPC    HA22796   2.861   6.340   1.674 -0.8535  0.1706  0.6400
  166DOPC    HB22797   2.900   6.510   1.719  1.5519  0.5752  0.8130
  166DOPC    C222798   2.890   6.382   1.888 -0.3786 -0.2761 -0.2768
  166DOPC    HS22799   2.782   6.401   1.908 -0.7670 -2.8158  0.3571
  166DOPC   O2122800   2.979   6.464   1.965 -1.1023  0.2209  0.5519
  166DOPC   C2122801   2.943   6.593   1.973  0.1642 -0.4012 -0.2810
  166DOPC   O2222802   2.836   6.635   1.933 -0.4706 -0.1046 -0.3457
  166DOPC   C2222803   3.038   6.677   2.061 -0.5914  0.2424 -0.6628
  166DOPC   H2R22804   2.977   6.748   2.120  0.5718 -0.4019  1.4449
  166DOPC   H2S22805   3.121   6.723   2.004 -0.8565 -0.3945 -1.5873
  166DOPC    C322806   2.919   6.234   1.915 -0.0251 -0.1318  1.1102
  166DOPC    HX22807   3.024   6.206   1.891 -0.1094  1.2779 -1.1102
  166DOPC    HY22808   2.859   6.192   1.832  1.9352  0.5276 -0.7279
  166DOPC   O3122809   2.873   6.184   2.043 -0.3239 -0.6101 -0.4673
  166DOPC   C3122810   2.975   6.194   2.131 -0.6838 -0.0571  0.4674
  166DOPC   O3222811   3.087   6.233   2.099  0.1634  0.7782 -0.1614
  166DOPC   C3222812   2.926   6.165   2.272  0.4842 -0.2778  0.4935
  166DOPC   H2X22813   2.915   6.262   2.325  2.7235  1.1206 -1.4423
  166DOPC   H2Y22814   2.838   6.096   2.266  1.3230 -1.4856  1.4179
  166DOPC   C2322815   3.102   6.597   2.179 -0.5172  0.0720  0.6518
  166DOPC   H3R22816   3.192   6.660   2.195  0.0489 -0.8138  1.0235
  166DOPC   H3S22817   3.140   6.495   2.158 -0.7165  0.0015  0.6365
  166DOPC   C2422818   3.020   6.601   2.303  0.1513  0.9026 -0.4059
  166DOPC   H4R22819   2.920   6.561   2.278 -0.0348 -0.2290  1.8780
  166DOPC   H4S22820   3.005   6.707   2.332 -1.4856  1.4676 -3.0222
  166DOPC   C2522821   3.088   6.528   2.419 -0.2148 -0.3669  1.0442
  166DOPC   H5R22822   3.193   6.509   2.389 -0.4635 -1.1472  0.6506
  166DOPC   H5S22823   3.042   6.427   2.428 -2.6885  0.6087  0.2232
  166DOPC   C2622824   3.074   6.601   2.545 -0.0851 -0.0924 -0.6210
  166DOPC   H6R22825   2.970   6.639   2.558  0.4958  0.8612  1.8727
  166DOPC   H6S22826   3.141   6.689   2.560 -0.2200 -0.5266  4.1686
  166DOPC   C2722827   3.092   6.511   2.669 -0.1188  0.5891 -0.3862
  166DOPC   H7R22828   3.194   6.469   2.658 -0.0913  0.0442  1.5876
  166DOPC   H7S22829   3.031   6.420   2.655  0.9255 -0.0644 -0.8689
  166DOPC   C2822830   3.078   6.584   2.807  0.2344  0.1065 -0.1924
  166DOPC   H8R22831   3.152   6.666   2.814  0.8292 -0.4654  0.3189
  166DOPC   H8S22832   3.110   6.517   2.890  0.7785  1.3941  0.6565
  166DOPC   C2922833   2.936   6.636   2.831 -0.2455  0.8423 -0.4062
  166DOPC   H9R22834   2.905   6.723   2.771  0.4816  0.8374 -0.8019
  166DOPC  C21022835   2.854   6.603   2.933  0.1440  0.3326 -0.6159
  166DOPC  H10R22836   2.757   6.655   2.932 -0.2003 -0.2726  0.2431
  166DOPC  C21122837   2.864   6.514   3.044  0.5951 -0.2603 -0.6792
  166DOPC  H11R22838   2.955   6.451   3.043  2.3986  2.1265 -3.2605
  166DOPC  H11S22839   2.778   6.446   3.029  0.4358 -0.2372  0.0721
  166DOPC  C21222840   2.850   6.585   3.179  0.0982  0.2472 -0.3604
  166DOPC  H12R22841   2.783   6.673   3.179  0.9312  0.8898 -0.3744
  166DOPC  H12S22842   2.952   6.623   3.201  0.8645 -1.7073 -0.3347
  166DOPC  C21322843   2.806   6.491   3.289  0.7016 -0.3297  0.2111
  166DOPC  H13R22844   2.867   6.398   3.298  0.7347 -0.3153  0.1372
  166DOPC  H13S22845   2.703   6.462   3.259  1.3843  0.0280 -2.7590
  166DOPC  C21422846   2.808   6.548   3.433 -0.8105 -0.8219  0.9461
  166DOPC  H14R22847   2.794   6.467   3.507  1.9602  0.1228  2.6536
  166DOPC  H14S22848   2.721   6.617   3.439 -0.9176 -1.0617  2.5994
  166DOPC  C21522849   2.931   6.640   3.458 -0.8429  0.0200 -0.0005
  166DOPC  H15R22850   2.918   6.739   3.409 -0.3381  0.1956  0.2140
  166DOPC  H15S22851   3.017   6.591   3.409 -1.8617 -0.0769 -1.7932
  166DOPC  C21622852   2.965   6.644   3.605  0.1162  0.0745 -0.3651
  166DOPC  H16R22853   2.947   6.544   3.649 -1.5939  0.9576  1.0888
  166DOPC  H16S22854   2.905   6.723   3.656  1.5635 -0.0681  1.6648
  166DOPC  C21722855   3.105   6.691   3.643  0.1761  0.0654  0.3916
  166DOPC  H17R22856   3.118   6.724   3.748 -1.5938  0.7269  0.4375
  166DOPC  H17S22857   3.120   6.781   3.579  1.8760 -0.4073  0.0648
  166DOPC  C21822858   3.220   6.599   3.608  0.2038  0.2057  0.2667
  166DOPC  H18R22859   3.315   6.652   3.630  0.5155  0.3002 -1.2478
  166DOPC  H18S22860   3.220   6.566   3.502 -1.0279 -0.4361  0.4504
  166DOPC  H18T22861   3.222   6.505   3.668 -1.9953  0.4677  0.8393
  166DOPC   C3322862   3.027   6.078   2.346  0.6749 -0.3975  0.0665
  166DOPC   H3X22863   3.125   6.129   2.359  0.7243  0.1425 -2.1296
  166DOPC   H3Y22864   3.049   5.992   2.281  1.2273 -0.0801 -0.1760
  166DOPC   C3422865   2.991   6.030   2.488 -0.0631  0.3933 -0.8165
  166DOPC   H4X22866   3.055   5.942   2.510 -0.7579 -0.0516 -0.5175
  166DOPC   H4Y22867   2.886   5.994   2.491 -0.1981  0.6823  2.7453
  166DOPC   C3522868   3.011   6.129   2.600  0.3652 -0.1436 -0.1855
  166DOPC   H5X22869   2.928   6.203   2.602  2.0814  1.8537  0.8234
  166DOPC   H5Y22870   3.104   6.188   2.586 -0.3305  0.5460 -2.4080
  166DOPC   C3622871   3.006   6.054   2.732  0.6313 -0.4392 -0.0901
  166DOPC   H6X22872   2.921   5.990   2.764  1.0933 -1.0499 -0.0760
  166DOPC   H6Y22873   3.084   5.976   2.722  0.6459 -0.4459  0.0828
  166DOPC   C3722874   3.039   6.151   2.850 -0.7333 -0.0374  0.1969
  166DOPC   H7X22875   3.140   6.196   2.839 -1.3638  1.5844  0.6826
  166DOPC   H7Y22876   2.975   6.240   2.832  1.3901  1.2933 -1.2566
  166DOPC   C3822877   3.027   6.080   2.982 -0.1178  0.2465 -0.0849
  166DOPC   H8X22878   3.108   6.003   2.984  0.1830  0.5691  0.3718
  166DOPC   H8Y22879   2.929   6.028   2.977 -0.4245  0.8706 -0.7912
  166DOPC   C3922880   3.047   6.184   3.092  0.3673 -0.4743  0.1750
  166DOPC   H9X22881   3.109   6.271   3.064  1.8055 -1.0361  1.4755
  166DOPC  C31022882   2.985   6.181   3.209 -0.1387  0.0260  0.3184
  166DOPC  H10X22883   3.012   6.256   3.286  1.7810  0.6844 -0.9226
  166DOPC  C31122884   2.891   6.069   3.258 -0.8900 -0.5749 -0.6684
  166DOPC  H11X22885   2.893   6.077   3.369 -2.5953  0.6909 -0.6893
  166DOPC  H11Y22886   2.930   5.972   3.221  0.1923 -0.8396  1.0496
  166DOPC  C31222887   2.742   6.080   3.223  0.3359  0.9136  0.5230
  166DOPC  H12X22888   2.731   6.025   3.127  0.1990  1.1826  0.3830
  166DOPC  H12Y22889   2.703   6.176   3.184 -0.6186  0.0216 -0.8598
  166DOPC  C31322890   2.630   6.020   3.309  0.2544 -0.1071 -0.2460
  166DOPC  H13X22891   2.660   5.917   3.335 -1.6437 -0.2447  1.7048
  166DOPC  H13Y22892   2.644   6.070   3.407 -0.5029 -0.1069 -0.1305
  166DOPC  C31422893   2.491   6.046   3.257  0.2802 -0.4821  0.1967
  166DOPC  H14X22894   2.475   6.153   3.229 -0.6850 -0.8622 -0.7721
  166DOPC  H14Y22895   2.475   5.996   3.159 -1.5585  1.2288 -0.4420
  166DOPC  C31522896   2.395   5.977   3.354 -0.5528 -0.4163 -0.5253
  166DOPC  H15X22897   2.380   6.032   3.450 -0.9445  0.2351 -0.9482
  166DOPC  H15Y22898   2.428   5.877   3.388  3.4462  0.4693 -1.2349
  166DOPC  C31622899   2.250   5.949   3.291 -0.1034 -0.2540  0.2518
  166DOPC  H16X22900   2.273   5.868   3.219  0.0203  1.5719 -1.8670
  166DOPC  H16Y22901   2.190   5.904   3.373  1.0417  0.0478  1.2816
  166DOPC  C31722902   2.169   6.069   3.231 -0.1523  0.0141  0.1148
  166DOPC  H17X22903   2.145   6.145   3.309  2.0024  4.1114 -2.8366
  166DOPC  H17Y22904   2.245   6.111   3.161 -0.3000 -0.8528 -0.5843
  166DOPC  C31822905   2.052   6.027   3.144 -0.1410  0.2412  0.0922
  166DOPC  H18X22906   2.097   5.957   3.071 -1.0296 -1.5508  1.1753
  166DOPC  H18Y22907   1.988   5.970   3.215  1.0576 -0.8609  0.3260
  166DOPC  H18Z22908   2.001   6.115   3.099  2.1510  1.7312  0.2661
  167DOPC     N22909   4.353   2.492   1.470  0.8643  0.0608 -0.2785
  167DOPC   C1222910   4.334   2.600   1.577  0.1507  0.0309  0.3732
  167DOPC  H12A22911   4.349   2.698   1.535 -2.0648  1.2910  2.2604
  167DOPC  H12B22912   4.409   2.591   1.655  1.1555  0.2486 -0.5469
  167DOPC   C1322913   4.245   2.492   1.366  0.2681  0.2427  0.1768
  167DOPC  H13A22914   4.145   2.485   1.407 -0.6387  1.9793 -1.5952
  167DOPC  H13B22915   4.240   2.583   1.309  0.4365  0.6386  0.7797
  167DOPC  H13C22916   4.268   2.411   1.299  1.4624  0.2241  0.5865
  167DOPC   C1422917   4.357   2.358   1.529 -0.7179  0.7727 -0.2181
  167DOPC  H14A22918   4.257   2.329   1.557  0.1543 -0.5739  1.8088
  167DOPC  H14B22919   4.383   2.276   1.464 -0.9241  0.2610  0.3358
  167DOPC  H14C22920   4.417   2.341   1.617 -2.0759  0.2160  0.6353
  167DOPC   C1522921   4.486   2.511   1.410 -0.2408  1.0464  0.0862
  167DOPC  H15A22922   4.497   2.615   1.384 -0.8971  1.0037 -0.3924
  167DOPC  H15B22923   4.501   2.459   1.316  1.8016 -2.8096  2.3204
  167DOPC  H15C22924   4.565   2.489   1.479  0.0154  2.7030  0.3463
  167DOPC   C1122925   4.194   2.601   1.647 -0.3376 -0.0189 -0.2639
  167DOPC  H11A22926   4.160   2.500   1.679 -1.2276  0.1163 -0.7386
  167DOPC  H11B22927   4.209   2.654   1.743  0.1947 -1.4199  0.4655
  167DOPC     P22928   4.104   2.820   1.531 -0.1536 -0.2972  0.0750
  167DOPC   O1322929   3.978   2.844   1.460  0.1890  0.0024  0.6062
  167DOPC   O1422930   4.234   2.863   1.468  0.6783 -0.5323 -1.0035
  167DOPC   O1222931   4.103   2.663   1.560  0.5650  0.0263  0.6273
  167DOPC   O1122932   4.092   2.873   1.681  0.4942 -0.5140 -0.1662
  167DOPC    C122933   4.193   2.942   1.752  0.0970 -0.3869 -0.2429
  167DOPC    HA22934   4.171   3.051   1.756  0.9838 -0.1843 -0.5745
  167DOPC    HB22935   4.299   2.928   1.720 -0.2216  0.5432 -1.8002
  167DOPC    C222936   4.187   2.893   1.904  1.3865  0.2521  0.5621
  167DOPC    HS22937   4.191   2.784   1.884  2.6348  0.6485 -1.6819
  167DOPC   O2122938   4.070   2.943   1.972  0.2220  0.7495 -0.0004
  167DOPC   C2122939   4.038   2.858   2.074 -0.4512 -0.2609 -0.2153
  167DOPC   O2222940   4.086   2.748   2.085  0.1989  0.5542  0.5848
  167DOPC   C2222941   3.923   2.926   2.154 -0.3855  0.1520 -0.5242
  167DOPC   H2R22942   3.839   2.853   2.155  0.4376 -0.8220 -0.3908
  167DOPC   H2S22943   3.889   3.011   2.092  0.7368  0.4503 -0.7352
  167DOPC    C322944   4.322   2.944   1.970  0.2817 -0.8380  0.0428
  167DOPC    HX22945   4.320   3.055   1.959 -0.9943 -0.7303  1.1786
  167DOPC    HY22946   4.421   2.927   1.921 -0.4459 -0.7210 -1.5418
  167DOPC   O3122947   4.323   2.915   2.106 -0.0727  0.0269 -0.2870
  167DOPC   C3122948   4.378   2.806   2.150 -0.8223 -0.3347 -0.4254
  167DOPC   O3222949   4.431   2.721   2.079  0.0374  0.4677  0.0664
  167DOPC   C3222950   4.362   2.787   2.298 -0.5924  0.0035 -0.7789
  167DOPC   H2X22951   4.357   2.889   2.343  2.6635  0.8852 -2.0973
  167DOPC   H2Y22952   4.270   2.729   2.318 -0.8110  0.8440  0.8423
  167DOPC   C2322953   3.976   2.948   2.295  0.0274  0.3296 -0.2862
  167DOPC   H3R22954   4.052   3.028   2.299  1.6419 -1.1498 -0.4121
  167DOPC   H3S22955   4.026   2.856   2.333 -1.3955 -0.3848 -0.0675
  167DOPC   C2422956   3.852   2.977   2.381 -0.1180 -0.2382  0.8721
  167DOPC   H4R22957   3.786   2.889   2.365 -2.0604  1.2155  0.4476
  167DOPC   H4S22958   3.807   3.068   2.335 -0.6027 -0.5209  0.7834
  167DOPC   C2522959   3.885   3.007   2.528 -0.1136 -0.4431  0.1147
  167DOPC   H5R22960   3.949   3.095   2.548  1.0452 -0.9372 -1.2236
  167DOPC   H5S22961   3.916   2.915   2.582  1.0536 -2.0675 -3.0346
  167DOPC   C2622962   3.756   3.047   2.601  0.4210  0.1592 -0.2864
  167DOPC   H6R22963   3.669   2.993   2.560  0.0040  0.6504 -0.0560
  167DOPC   H6S22964   3.753   3.154   2.571  1.0553  0.5061  0.8280
  167DOPC   C2722965   3.753   3.051   2.754  0.1553 -0.5465 -0.1055
  167DOPC   H7R22966   3.654   3.100   2.767  0.6086  0.8055 -1.4393
  167DOPC   H7S22967   3.834   3.119   2.788  0.2257  0.4440 -2.0910
  167DOPC   C2822968   3.764   2.924   2.829  0.2183  0.4660  0.2384
  167DOPC   H8R22969   3.854   2.866   2.802  0.1282 -0.3497  1.5547
  167DOPC   H8S22970   3.679   2.860   2.796 -0.0428  1.1718 -0.4718
  167DOPC   C2922971   3.775   2.953   2.980  0.4088  0.3166  0.6892
  167DOPC   H9R22972   3.673   2.957   3.021  0.3256 -0.2102  0.5429
  167DOPC  C21022973   3.878   2.984   3.063  0.1729 -0.2447  0.3259
  167DOPC  H10R22974   3.861   2.989   3.171 -1.3653  1.5926  0.0547
  167DOPC  C21122975   4.025   3.000   3.024  0.1816  0.0642  0.3514
  167DOPC  H11R22976   4.033   3.082   2.949 -1.2836  1.5068  1.6946
  167DOPC  H11S22977   4.064   2.905   2.982 -0.5847  0.0376 -0.3232
  167DOPC  C21222978   4.125   3.031   3.136 -0.2040  0.5557 -0.2258
  167DOPC  H12R22979   4.133   2.948   3.209  1.0550  0.8097 -0.0621
  167DOPC  H12S22980   4.094   3.119   3.198  4.0040  0.4545  2.3849
  167DOPC  C21322981   4.266   3.050   3.085 -0.5258  0.2816  0.2377
  167DOPC  H13R22982   4.267   3.125   3.003 -0.8247 -1.6984 -1.6649
  167DOPC  H13S22983   4.307   2.955   3.046  1.1265  1.4478 -0.9891
  167DOPC  C21422984   4.369   3.089   3.197  0.0151  0.0581 -0.4143
  167DOPC  H14R22985   4.391   2.990   3.244 -0.2389 -0.4997 -1.4371
  167DOPC  H14S22986   4.322   3.158   3.270 -0.0920  1.6869 -1.9609
  167DOPC  C21522987   4.507   3.137   3.149 -0.0533 -0.3088  0.5026
  167DOPC  H15R22988   4.510   3.244   3.117  0.4533  0.7077  3.6440
  167DOPC  H15S22989   4.514   3.069   3.061 -2.1159  1.7172 -1.3797
  167DOPC  C21622990   4.610   3.125   3.254 -0.8843 -0.9369  0.5173
  167DOPC  H16R22991   4.626   3.015   3.268  2.2233 -0.4170  2.2444
  167DOPC  H16S22992   4.576   3.165   3.352  0.6042  0.6007  0.4429
  167DOPC  C21722993   4.737   3.197   3.217 -0.4325  0.0155 -0.2648
  167DOPC  H17R22994   4.725   3.304   3.189  0.2958 -0.2865 -1.8395
  167DOPC  H17S22995   4.774   3.140   3.129 -0.9099  1.4542 -1.4376
  167DOPC  C21822996   4.841   3.191   3.326  0.5817 -0.1177  0.2002
  167DOPC  H18R22997   4.806   3.243   3.418  1.0127  0.2234  0.1694
  167DOPC  H18S22998   4.933   3.241   3.289  1.0849 -0.8250  0.4709
  167DOPC  H18T22999   4.877   3.088   3.343 -0.5985 -0.8726 -1.4858
  167DOPC   C3323000   4.478   2.722   2.378 -0.0728  0.0402 -0.0350
  167DOPC   H3X23001   4.455   2.725   2.487 -0.0220  0.0280 -0.0239
  167DOPC   H3Y23002   4.576   2.773   2.367  1.0060 -2.0368 -0.5870
  167DOPC   C3423003   4.507   2.577   2.346 -0.4089  0.2858 -0.4267
  167DOPC   H4X23004   4.557   2.571   2.247  3.2607 -1.5798  1.3551
  167DOPC   H4Y23005   4.413   2.518   2.337  1.1909 -2.8897  1.9527
  167DOPC   C3523006   4.596   2.504   2.444 -0.1976  0.5063 -0.8492
  167DOPC   H5X23007   4.540   2.493   2.539 -0.7886 -2.7401 -1.4745
  167DOPC   H5Y23008   4.693   2.558   2.450 -0.5424  0.9639  1.3623
  167DOPC   C3623009   4.621   2.365   2.391  0.9142  0.0128  0.4170
  167DOPC   H6X23010   4.528   2.309   2.369  2.5563 -2.6141 -0.2671
  167DOPC   H6Y23011   4.684   2.370   2.299  0.8788 -0.0726  0.3886
  167DOPC   C3723012   4.696   2.276   2.494 -0.0704 -0.2002  0.7032
  167DOPC   H7X23013   4.713   2.180   2.441  1.5976 -0.0248  0.8780
  167DOPC   H7Y23014   4.796   2.321   2.506  0.2424 -0.8619  0.5866
  167DOPC   C3823015   4.627   2.252   2.627 -0.8163  0.2736  0.0315
  167DOPC   H8X23016   4.521   2.222   2.617 -0.6864 -0.8967  1.7237
  167DOPC   H8Y23017   4.624   2.344   2.689  0.7868 -0.2617  0.9475
  167DOPC   C3923018   4.692   2.148   2.704  0.0235 -0.4885 -0.7283
  167DOPC   H9X23019   4.797   2.132   2.677 -0.9137 -4.4517 -2.6467
  167DOPC  C31023020   4.651   2.102   2.824  0.0139 -0.6603  0.3127
  167DOPC  H10X23021   4.705   2.028   2.885 -0.6046 -1.0094  0.4499
  167DOPC  C31123022   4.520   2.136   2.888  0.3720 -0.1757  0.3620
  167DOPC  H11X23023   4.468   2.038   2.889 -0.3920  0.1440 -1.8941
  167DOPC  H11Y23024   4.462   2.197   2.815  1.9817  0.1177 -0.7442
  167DOPC  C31223025   4.538   2.209   3.021  0.6721 -1.1274 -0.2271
  167DOPC  H12X23026   4.595   2.144   3.091 -0.1195 -1.9773 -0.3514
  167DOPC  H12Y23027   4.437   2.232   3.060 -0.2114 -1.1850 -2.3294
  167DOPC  C31323028   4.611   2.342   3.002 -0.0478 -0.7480 -0.2950
  167DOPC  H13X23029   4.698   2.319   2.937  0.3038 -1.4993  0.4195
  167DOPC  H13Y23030   4.538   2.411   2.955  1.1793  1.0286  0.2988
  167DOPC  C31423031   4.645   2.411   3.142 -0.0042  0.0425 -0.0740
  167DOPC  H14X23032   4.547   2.439   3.186 -0.5914  0.6853 -1.7204
  167DOPC  H14Y23033   4.682   2.333   3.212  0.9955  1.2732  0.8113
  167DOPC  C31523034   4.723   2.542   3.123 -0.4426 -0.3642 -0.2580
  167DOPC  H15X23035   4.674   2.600   3.043  1.6302  0.4453 -1.0183
  167DOPC  H15Y23036   4.827   2.520   3.090 -0.3543 -2.0154  0.9558
  167DOPC  C31623037   4.722   2.648   3.235 -0.4629 -0.2785 -0.5280
  167DOPC  H16X23038   4.777   2.734   3.191 -0.9036  0.2934  0.0303
  167DOPC  H16Y23039   4.619   2.673   3.266 -0.3363  0.4320 -0.6655
  167DOPC  C31723040   4.804   2.617   3.362  0.5236 -0.2436  0.2727
  167DOPC  H17X23041   4.792   2.512   3.395 -0.5447  0.5092  2.5011
  167DOPC  H17Y23042   4.910   2.644   3.340  0.1159 -0.1007 -1.6325
  167DOPC  C31823043   4.741   2.694   3.478 -0.5614 -0.8507  0.3527
  167DOPC  H18X23044   4.804   2.674   3.567  1.9297 -1.3600 -1.4125
  167DOPC  H18Y23045   4.750   2.803   3.461 -2.0673 -0.5926  1.0638
  167DOPC  H18Z23046   4.635   2.674   3.505 -0.8738  0.3189  0.0326
  168DOPC     N23047   3.741   5.775   1.573 -0.5836  0.5206  0.1995
  168DOPC   C1223048   3.600   5.795   1.633 -0.1802 -0.6656 -0.1356
  168DOPC  H12A23049   3.582   5.902   1.631  0.3207 -0.5813 -0.4835
  168DOPC  H12B23050   3.610   5.784   1.740  0.0621  1.2359  0.0812
  168DOPC   C1323051   3.737   5.838   1.435  0.2548  0.3128 -1.1649
  168DOPC  H13A23052   3.661   5.797   1.370  0.4614 -2.8368  0.3495
  168DOPC  H13B23053   3.714   5.942   1.454 -1.7599 -0.0808 -1.1769
  168DOPC  H13C23054   3.828   5.844   1.378 -0.2620  1.7985 -1.8660
  168DOPC   C1423055   3.768   5.632   1.565  0.6754 -0.2025  0.1026
  168DOPC  H14A23056   3.791   5.582   1.658 -1.2876 -1.1164  0.1302
  168DOPC  H14B23057   3.677   5.593   1.523 -0.5111  3.4311 -1.0974
  168DOPC  H14C23058   3.855   5.619   1.501  0.7691  1.5595 -0.1848
  168DOPC   C1523059   3.848   5.825   1.652  0.0473  0.6592 -0.4287
  168DOPC  H15A23060   3.938   5.807   1.595 -0.2625  0.7965 -0.9724
  168DOPC  H15B23061   3.852   5.784   1.752 -1.7217  1.2140 -0.0894
  168DOPC  H15C23062   3.844   5.932   1.670  0.0912  0.7727 -1.0685
  168DOPC   C1123063   3.483   5.714   1.593 -0.1567  0.2526 -0.5028
  168DOPC  H11A23064   3.506   5.605   1.603  0.9213  0.2142 -2.8138
  168DOPC  H11B23065   3.401   5.748   1.660 -0.5515 -0.8866 -0.3937
  168DOPC     P23066   3.363   5.862   1.414  0.3401  0.2111 -0.1610
  168DOPC   O1323067   3.279   5.838   1.292 -0.5400 -0.2309  0.4672
  168DOPC   O1423068   3.445   5.983   1.418  0.2620  0.4550 -1.0075
  168DOPC   O1223069   3.452   5.737   1.452 -0.1692  0.2474  0.2411
  168DOPC   O1123070   3.253   5.864   1.528 -0.2588  0.0609 -0.1880
  168DOPC    C123071   3.265   5.966   1.628 -0.3549  0.4846  0.0700
  168DOPC    HA23072   3.249   6.062   1.575  0.5236 -0.0010 -1.1275
  168DOPC    HB23073   3.368   5.963   1.671  0.8520  0.6603 -2.5910
  168DOPC    C223074   3.162   5.945   1.743  0.1667 -0.5712  0.0225
  168DOPC    HS23075   3.173   6.028   1.816  0.6513 -1.7513  1.3160
  168DOPC   O2123076   3.196   5.822   1.804  0.1986 -0.3882 -0.4471
  168DOPC   C2123077   3.291   5.836   1.895  0.2447  0.4275  0.1399
  168DOPC   O2223078   3.351   5.936   1.918 -0.4665  0.3246 -0.1512
  168DOPC   C2223079   3.323   5.706   1.967  0.2347  0.2448 -0.1530
  168DOPC   H2R23080   3.400   5.732   2.043  1.5645  0.9315 -1.6857
  168DOPC   H2S23081   3.366   5.638   1.891  0.2800 -0.8542  0.8241
  168DOPC    C323082   3.015   5.931   1.691 -0.8176  0.7422  0.2048
  168DOPC    HX23083   3.010   5.841   1.626 -0.3990 -0.6692  2.0318
  168DOPC    HY23084   2.984   6.021   1.633 -0.2928  0.4848 -0.4897
  168DOPC   O3123085   2.925   5.921   1.803 -0.3236 -0.3315 -0.3792
  168DOPC   C3123086   2.861   5.808   1.817 -0.3097  0.5363  0.3509
  168DOPC   O3223087   2.871   5.707   1.749  0.6677 -0.0236 -0.5808
  168DOPC   C3223088   2.776   5.809   1.945 -0.2330  0.0445 -0.3568
  168DOPC   H2X23089   2.748   5.916   1.952  1.3431  0.4471  0.0349
  168DOPC   H2Y23090   2.690   5.741   1.924  0.7650 -1.1306 -0.7124
  168DOPC   C2323091   3.198   5.647   2.024  0.2344  0.0552  0.0959
  168DOPC   H3R23092   3.204   5.536   2.022  0.3500  0.0692 -1.3680
  168DOPC   H3S23093   3.107   5.681   1.970 -0.2984  1.0860  1.5622
  168DOPC   C2423094   3.188   5.690   2.176  0.2720  0.6192 -0.1804
  168DOPC   H4R23095   3.089   5.651   2.209 -1.0844  2.1324 -2.2511
  168DOPC   H4S23096   3.196   5.799   2.192 -0.2683  0.7112 -0.4930
  168DOPC   C2523097   3.289   5.613   2.261 -0.0027  0.1682  0.7464
  168DOPC   H5R23098   3.387   5.664   2.277  0.1446  0.6735 -1.5278
  168DOPC   H5S23099   3.315   5.514   2.219 -0.2898  0.1538  0.5985
  168DOPC   C2623100   3.224   5.583   2.390  0.7397 -0.1744 -0.3585
  168DOPC   H6R23101   3.144   5.512   2.360  0.6232  0.0520 -0.5931
  168DOPC   H6S23102   3.174   5.675   2.427  1.8543  0.7788 -1.1432
  168DOPC   C2723103   3.314   5.523   2.500 -0.3779  0.0807  0.2872
  168DOPC   H7R23104   3.400   5.587   2.531 -0.5638  0.2028  0.5492
  168DOPC   H7S23105   3.355   5.424   2.472  2.2099  1.5077 -1.4600
  168DOPC   C2823106   3.242   5.495   2.634 -0.1249 -0.7084 -0.8385
  168DOPC   H8R23107   3.151   5.432   2.623 -1.7169  1.3372 -0.0636
  168DOPC   H8S23108   3.203   5.596   2.662 -1.3857 -1.6839  1.2020
  168DOPC   C2923109   3.334   5.446   2.747 -0.4595 -0.1379  0.9030
  168DOPC   H9R23110   3.424   5.393   2.712 -1.4776 -2.5697  1.7806
  168DOPC  C21023111   3.332   5.471   2.878  0.5555  0.3648  0.1873
  168DOPC  H10R23112   3.423   5.450   2.937  2.3631 -0.1908 -2.6020
  168DOPC  C21123113   3.220   5.548   2.945  0.0635 -0.0626  0.2161
  168DOPC  H11R23114   3.145   5.477   2.985 -0.7667  0.0226 -1.1301
  168DOPC  H11S23115   3.166   5.609   2.870 -0.8101  0.6506  1.3988
  168DOPC  C21223116   3.279   5.639   3.057  0.6028 -0.0268  0.4009
  168DOPC  H12R23117   3.353   5.710   3.014  1.3545 -1.4213 -0.7362
  168DOPC  H12S23118   3.330   5.578   3.134 -1.3794 -1.0983  0.9445
  168DOPC  C21323119   3.171   5.699   3.137  0.6299  0.2368 -0.4671
  168DOPC  H13R23120   3.120   5.619   3.194  0.7530  0.6126  0.1760
  168DOPC  H13S23121   3.097   5.737   3.063  0.3915  0.9548  0.1317
  168DOPC  C21423122   3.211   5.812   3.233  0.0337  0.5318 -0.3503
  168DOPC  H14R23123   3.114   5.845   3.275  1.1304  0.0701  2.7807
  168DOPC  H14S23124   3.259   5.892   3.173  0.9764 -0.5270 -1.0612
  168DOPC  C21523125   3.315   5.767   3.340 -0.2476  0.3312 -0.4041
  168DOPC  H15R23126   3.322   5.855   3.407  1.0316  0.4824 -0.7263
  168DOPC  H15S23127   3.412   5.761   3.287  0.1970  0.7518  0.3416
  168DOPC  C21623128   3.300   5.637   3.423 -0.5877  0.1017  0.1240
  168DOPC  H16R23129   3.291   5.542   3.366 -0.3934 -0.6473  1.3253
  168DOPC  H16S23130   3.215   5.640   3.494 -1.7280 -1.1837 -1.1385
  168DOPC  C21723131   3.426   5.621   3.511  0.3957 -0.3728 -0.0477
  168DOPC  H17R23132   3.396   5.662   3.610 -0.0236  0.8746 -0.6745
  168DOPC  H17S23133   3.502   5.690   3.467 -0.0726 -0.0158 -0.3022
  168DOPC  C21823134   3.492   5.484   3.516 -0.1566 -0.1657  0.0884
  168DOPC  H18R23135   3.540   5.464   3.417 -1.7300 -0.0291 -0.7393
  168DOPC  H18S23136   3.412   5.411   3.541  2.2284 -2.6655  1.0379
  168DOPC  H18T23137   3.565   5.467   3.598 -0.3394 -0.6372  0.1595
  168DOPC   C3323138   2.852   5.773   2.073  0.2069  0.5373 -0.9407
  168DOPC   H3X23139   2.942   5.837   2.082  0.4463 -0.0738  1.9775
  168DOPC   H3Y23140   2.886   5.667   2.067  1.7974  1.0501 -1.2009
  168DOPC   C3423141   2.776   5.792   2.200  0.3819  0.4032  0.1459
  168DOPC   H4X23142   2.667   5.775   2.186  0.1702 -2.0276  3.5244
  168DOPC   H4Y23143   2.785   5.895   2.240  0.0914  0.4014  0.2219
  168DOPC   C3523144   2.829   5.690   2.314 -0.3770 -0.4067  0.6714
  168DOPC   H5X23145   2.938   5.696   2.331  0.0239  0.7159 -1.8265
  168DOPC   H5Y23146   2.791   5.589   2.286 -0.4966  0.3050 -2.0727
  168DOPC   C3623147   2.769   5.720   2.454  0.0690  0.1370  0.3751
  168DOPC   H6X23148   2.783   5.820   2.499  0.1820  1.1098 -1.6907
  168DOPC   H6Y23149   2.659   5.710   2.439 -0.1479  1.5941  0.8259
  168DOPC   C3723150   2.823   5.628   2.561 -0.3740  0.8991 -0.3909
  168DOPC   H7X23151   2.819   5.524   2.522  2.0010  1.0776 -1.2820
  168DOPC   H7Y23152   2.932   5.646   2.567 -0.2508  0.2830 -0.6367
  168DOPC   C3823153   2.752   5.620   2.696 -0.0216 -0.4942 -0.3025
  168DOPC   H8X23154   2.647   5.586   2.685  0.3441 -1.2494 -1.8054
  168DOPC   H8Y23155   2.746   5.727   2.726 -1.9411 -0.3730 -0.9941
  168DOPC   C3923156   2.840   5.532   2.791 -0.3331 -0.7159  0.2582
  168DOPC   H9X23157   2.891   5.449   2.740 -0.3759  0.4579 -1.7956
  168DOPC  C31023158   2.863   5.558   2.925 -0.5845  0.2390  0.0841
  168DOPC  H10X23159   2.908   5.477   2.985  0.9166  0.4612 -0.7135
  168DOPC  C31123160   2.790   5.667   3.000  1.0025 -0.0578 -0.0427
  168DOPC  H11X23161   2.689   5.689   2.959 -0.5007  0.0155  3.3421
  168DOPC  H11Y23162   2.848   5.762   2.995 -1.4740  1.8091  2.8385
  168DOPC  C31223163   2.772   5.640   3.154 -0.5231  0.3519 -0.9256
  168DOPC  H12X23164   2.739   5.733   3.204 -0.9498  0.2789 -1.0660
  168DOPC  H12Y23165   2.863   5.602   3.206  0.4879  2.0505 -1.4018
  168DOPC  C31323166   2.666   5.535   3.189 -0.4014 -0.5318  0.4320
  168DOPC  H13X23167   2.574   5.562   3.133 -0.3479 -1.2218 -0.0060
  168DOPC  H13Y23168   2.685   5.435   3.145 -2.4852 -0.7984  0.0296
  168DOPC  C31423169   2.627   5.519   3.338  0.6138  0.5941 -0.5695
  168DOPC  H14X23170   2.714   5.519   3.407  0.9184 -0.6248 -0.9221
  168DOPC  H14Y23171   2.559   5.600   3.371 -2.2188 -1.1205 -1.7771
  168DOPC  C31523172   2.547   5.387   3.349  0.2962 -0.1434  0.5538
  168DOPC  H15X23173   2.622   5.311   3.317  1.8773  2.0791 -1.3097
  168DOPC  H15Y23174   2.461   5.395   3.279 -0.3333  1.0123  1.4131
  168DOPC  C31623175   2.492   5.362   3.489  1.0087  0.5134  0.5032
  168DOPC  H16X23176   2.568   5.394   3.563  0.1079  1.2860  1.1173
  168DOPC  H16Y23177   2.411   5.435   3.509  2.1362  1.9986 -0.1606
  168DOPC  C31723178   2.437   5.219   3.512  0.4929  0.7673  0.1053
  168DOPC  H17X23179   2.513   5.147   3.475  0.8185  0.7479  0.8128
  168DOPC  H17Y23180   2.439   5.210   3.622 -0.1420 -0.9068  0.0149
  168DOPC  C31823181   2.301   5.188   3.445  0.0390 -0.4200 -0.8203
  168DOPC  H18X23182   2.233   5.112   3.490 -1.3622  1.2662  0.0600
  168DOPC  H18Y23183   2.246   5.284   3.442 -0.2486 -0.3905  2.3741
  168DOPC  H18Z23184   2.315   5.154   3.340 -0.7051  0.8647 -1.3624
  169DOPC     N23185   8.479   0.263   1.460 -0.1014  0.5008  0.0052
  169DOPC   C1223186   0.067   0.252   1.539  0.5391 -0.0866 -0.2703
  169DOPC  H12A23187   0.065   0.319   1.624 -1.2434  0.8279 -0.9815
  169DOPC  H12B23188   0.147   0.300   1.486  1.0856 -0.9193 -0.2210
  169DOPC   C1323189   8.349   0.224   1.521  0.4220  0.3841 -0.2215
  169DOPC  H13A23190   8.265   0.274   1.475  0.3490 -0.9443 -1.6329
  169DOPC  H13B23191   8.331   0.118   1.511 -0.3454  0.6039 -1.3801
  169DOPC  H13C23192   8.357   0.250   1.626  2.4256  1.9511 -0.6884
  169DOPC   C1423193   8.489   0.184   1.332 -0.3366 -0.7444  0.2509
  169DOPC  H14A23194   8.522   0.081   1.338 -1.3090 -1.1105 -0.3528
  169DOPC  H14B23195   8.403   0.182   1.266 -0.4858  0.8542  0.3773
  169DOPC  H14C23196   0.028   0.230   1.269 -1.0590 -0.8881 -0.7403
  169DOPC   C1523197   8.445   0.398   1.417  0.5054  0.1355 -0.2352
  169DOPC  H15A23198   8.422   0.458   1.504 -1.6426 -0.7652 -0.1139
  169DOPC  H15B23199   8.354   0.391   1.359 -0.4369 -0.8076  1.2909
  169DOPC  H15C23200   8.526   0.445   1.362 -1.0263  3.4665  0.0938
  169DOPC   C1123201   0.113   0.110   1.589  0.0700  0.4317  0.4949
  169DOPC  H11A23202   0.183   0.120   1.675  0.2826  0.8698  0.2764
  169DOPC  H11B23203   0.024   0.050   1.617  0.0562  0.8772  1.4377
  169DOPC     P23204   0.326   0.095   1.440 -0.0068 -0.4929  0.0382
  169DOPC   O1323205   0.332   0.242   1.425 -0.4691 -0.3072  0.2564
  169DOPC   O1423206   0.375   0.019   1.320  0.5051 -0.5632  0.2389
  169DOPC   O1223207   0.179   0.050   1.481 -0.1933 -0.5877  0.8172
  169DOPC   O1123208   0.409   0.058   1.570  0.2452 -0.3301  0.2131
  169DOPC    C123209   0.429   8.458   1.605  0.2363  0.5244  0.5605
  169DOPC    HA23210   0.492   8.411   1.526  0.0875  1.1894  0.0323
  169DOPC    HB23211   0.330   8.408   1.601  0.3690  0.1776  1.3824
  169DOPC    C223212   0.504   8.440   1.733 -0.1894  0.4169  0.0464
  169DOPC    HS23213   0.508   8.334   1.766  1.0454  0.7835  1.1253
  169DOPC   O2123214   0.456   8.513   1.844  0.3423  0.5880 -0.1159
  169DOPC   C2123215   0.329   8.499   1.870 -0.3355  0.5404  0.2949
  169DOPC   O2223216   0.253   8.425   1.815  0.2853 -0.0010 -0.2356
  169DOPC   C2223217   0.291   0.060   1.982  0.0344 -0.6684 -0.2860
  169DOPC   H2R23218   0.260   0.157   1.937 -0.2086 -0.8449 -0.4989
  169DOPC   H2S23219   0.379   0.081   2.046  0.3372  2.4727 -1.5441
  169DOPC    C323220   0.653   8.498   1.715  0.2553 -0.3964 -0.1636
  169DOPC    HX23221   0.634   0.068   1.683  0.7888  0.4164  1.9905
  169DOPC    HY23222   0.709   8.445   1.635 -2.0246 -1.9964 -0.7900
  169DOPC   O3123223   0.730   8.510   1.839  0.0191  0.1584  0.5372
  169DOPC   C3123224   0.858   0.015   1.828 -0.1560  0.1521 -0.9504
  169DOPC   O3223225   0.916   0.045   1.726 -0.4595  0.1749 -0.2616
  169DOPC   C3223226   0.934   0.014   1.965  0.0159 -0.7542 -0.1230
  169DOPC   H2X23227   0.858   0.048   2.038 -0.5570 -1.5630 -0.3295
  169DOPC   H2Y23228   0.944   8.440   1.984  4.5344 -0.3523  0.8359
  169DOPC   C2323229   0.180   0.007   2.077 -0.3453 -0.0691  0.3379
  169DOPC   H3R23230   0.214   8.453   2.133 -0.5629  0.9384  2.1468
  169DOPC   H3S23231   0.103   8.501   2.008  1.8612 -2.2464 -0.9895
  169DOPC   C2423232   0.125   0.106   2.178  0.9931  0.0835 -0.1826
  169DOPC   H4R23233   0.200   0.150   2.246  1.2329  1.2728 -1.1871
  169DOPC   H4S23234   0.051   0.052   2.240  0.9836  2.1378  1.7350
  169DOPC   C2523235   0.052   0.229   2.116 -1.4008  0.3390 -0.2467
  169DOPC   H5R23236   8.487   0.229   2.165 -1.1370 -2.6597  0.4630
  169DOPC   H5S23237   0.034   0.196   2.012  2.2631  1.6707 -1.4619
  169DOPC   C2623238   0.119   0.366   2.106  0.2570  0.2813  0.1766
  169DOPC   H6R23239   0.057   0.438   2.049 -0.2033  1.1004  1.6538
  169DOPC   H6S23240   0.210   0.355   2.043 -0.8871 -2.4861 -1.1748
  169DOPC   C2723241   0.176   0.435   2.236  0.3641 -0.1288 -0.2056
  169DOPC   H7R23242   0.237   0.519   2.198  0.5292 -0.3645 -0.4708
  169DOPC   H7S23243   0.255   0.373   2.284  1.1592  1.0366  0.0300
  169DOPC   C2823244   0.069   0.492   2.339  0.3700 -0.1061 -0.4069
  169DOPC   H8R23245   8.521   0.522   2.272 -0.1005 -0.6550 -0.0759
  169DOPC   H8S23246   0.111   0.581   2.390  0.7308 -0.5565  0.0892
  169DOPC   C2923247   0.026   0.393   2.439  0.1825 -0.5194 -0.0059
  169DOPC   H9R23248   0.096   0.309   2.450 -1.2545 -1.6127  1.1884
  169DOPC  C21023249   8.466   0.404   2.530 -0.4422  0.2312 -0.2474
  169DOPC  H10R23250   8.453   0.321   2.602  2.2084  0.3279  0.4635
  169DOPC  C21123251   8.364   0.512   2.545 -0.0749 -0.3339 -0.4193
  169DOPC  H11R23252   8.362   0.585   2.462  0.4508  2.2866  1.7252
  169DOPC  H11S23253   8.388   0.577   2.632 -0.9416  1.5654 -1.5484
  169DOPC  C21223254   8.218   0.448   2.550 -0.2753 -0.3747 -0.0764
  169DOPC  H12R23255   8.202   0.382   2.637 -1.2971  1.6687  1.3708
  169DOPC  H12S23256   8.209   0.395   2.453  1.3276  0.9480 -1.0029
  169DOPC  C21323257   8.111   0.547   2.574 -0.2430  0.0054 -0.2606
  169DOPC  H13R23258   8.093   0.563   2.683 -0.0325  1.0639 -0.3749
  169DOPC  H13S23259   8.008   0.519   2.546  0.3471 -1.2111 -1.3254
  169DOPC  C21423260   8.129   0.690   2.517  0.4782  0.0242 -0.0374
  169DOPC  H14R23261   8.217   0.745   2.556  0.4236 -1.0013  1.6259
  169DOPC  H14S23262   8.032   0.741   2.534  0.3753  0.0923 -0.8071
  169DOPC  C21523263   8.117   0.684   2.366 -0.1612 -0.1163  0.1020
  169DOPC  H15R23264   8.202   0.634   2.315 -1.3685 -2.4141  0.1988
  169DOPC  H15S23265   8.113   0.790   2.331 -0.7948  0.1766  1.0297
  169DOPC  C21623266   7.982   0.629   2.307  0.5529 -0.9691  0.4999
  169DOPC  H16R23267   7.896   0.680   2.355  0.5675 -0.7878  0.3356
  169DOPC  H16S23268   7.964   0.521   2.324  0.5676 -1.2595 -1.1639
  169DOPC  C21723269   7.977   0.647   2.159 -0.0937  0.2794  0.1299
  169DOPC  H17R23270   8.012   0.750   2.134  0.6301  0.2941  1.1462
  169DOPC  H17S23271   7.873   0.649   2.118 -0.3183  2.8270  0.6196
  169DOPC  C21823272   8.074   0.551   2.078  0.0485 -0.0969 -0.2671
  169DOPC  H18R23273   8.008   0.473   2.034 -0.7047 -0.1844  0.9667
  169DOPC  H18S23274   8.145   0.487   2.136 -0.0460  1.4769  1.6566
  169DOPC  H18T23275   8.116   0.608   1.993 -1.6707  0.6468 -0.6503
  169DOPC   C3323276   1.072   0.073   1.970  0.2051 -1.0530 -0.2333
  169DOPC   H3X23277   1.075   0.178   1.933 -0.1490  0.9384  4.5469
  169DOPC   H3Y23278   1.147   0.009   1.920  1.4450  0.6777 -0.6858
  169DOPC   C3423279   1.113   0.104   2.120 -0.3181 -0.1282  0.0358
  169DOPC   H4X23280   1.224   0.096   2.118 -0.2489  0.6500 -2.0255
  169DOPC   H4Y23281   1.074   0.014   2.171 -0.9879 -2.5448 -4.2797
  169DOPC   C3523282   1.075   0.244   2.166 -0.2061  0.1228  0.1747
  169DOPC   H5X23283   0.968   0.269   2.149 -0.4522  0.1531  1.6461
  169DOPC   H5Y23284   1.139   0.314   2.108 -0.4298 -1.4354 -2.0881
  169DOPC   C3623285   1.116   0.268   2.317  0.2009  0.0230  0.4969
  169DOPC   H6X23286   1.223   0.239   2.326 -0.0334 -0.7044  1.0132
  169DOPC   H6Y23287   1.106   0.376   2.343  1.7942  0.8188 -1.8636
  169DOPC   C3723288   1.030   0.188   2.418  0.1792 -0.5636 -0.0076
  169DOPC   H7X23289   0.926   0.226   2.411 -0.0437 -0.1028  3.8257
  169DOPC   H7Y23290   1.024   0.082   2.383  0.1993 -0.0379 -1.6795
  169DOPC   C3823291   1.085   0.201   2.564  0.9693 -0.0701 -0.1647
  169DOPC   H8X23292   1.084   0.312   2.566  0.6452 -0.0852  1.2825
  169DOPC   H8Y23293   1.184   0.155   2.581  0.4552 -1.7192 -1.4049
  169DOPC   C3923294   0.994   0.151   2.682 -1.4069  0.7311  0.7691
  169DOPC   H9X23295   0.953   0.055   2.649 -0.6934  1.4695 -2.5768
  169DOPC  C31023296   0.980   0.193   2.811  0.1142 -0.1123 -0.3481
  169DOPC  H10X23297   0.913   0.133   2.874 -0.7866 -0.2823 -1.4464
  169DOPC  C31123298   1.065   0.297   2.873  0.7320  0.1372 -0.2513
  169DOPC  H11X23299   1.094   0.381   2.805  1.3701  0.3343  0.2495
  169DOPC  H11Y23300   1.142   0.258   2.943  0.5296  1.3701  0.6937
  169DOPC  C31223301   0.983   0.379   2.986  0.0370  0.5684 -0.3379
  169DOPC  H12X23302   0.978   0.310   3.074  2.3291  1.3219  0.4621
  169DOPC  H12Y23303   0.879   0.403   2.958  0.4471  2.2371 -0.5113
  169DOPC  C31323304   1.065   0.500   3.034  0.0907  0.3433 -1.0144
  169DOPC  H13X23305   1.066   0.567   2.945  0.0788 -1.0921 -2.1365
  169DOPC  H13Y23306   1.021   0.551   3.122 -0.4906 -1.2528 -0.3418
  169DOPC  C31423307   1.217   0.471   3.063 -0.3109  0.1179  0.0551
  169DOPC  H14X23308   1.214   0.372   3.114 -0.7728  0.9615  1.7278
  169DOPC  H14Y23309   1.276   0.455   2.969  0.4261  0.3340  0.4706
  169DOPC  C31523310   1.276   0.580   3.156 -0.4309  0.0331 -0.1577
  169DOPC  H15X23311   1.205   0.597   3.240 -1.2997 -1.6057 -0.5100
  169DOPC  H15Y23312   1.288   0.676   3.102  1.0872  0.1141  0.2555
  169DOPC  C31623313   1.416   0.547   3.211  0.2006  0.8055  0.0646
  169DOPC  H16X23314   1.428   0.439   3.234  0.7293  0.7541 -0.4233
  169DOPC  H16Y23315   1.493   0.558   3.131  2.2946 -2.2397  1.4827
  169DOPC  C31723316   1.464   0.607   3.339 -0.3439 -0.4091 -0.2101
  169DOPC  H17X23317   1.492   0.713   3.324  3.2397 -1.3341 -0.9110
  169DOPC  H17Y23318   1.383   0.606   3.416 -0.8674  0.4127 -0.7335
  169DOPC  C31823319   1.600   0.549   3.384 -0.4000  0.1339 -0.0980
  169DOPC  H18X23320   1.627   0.591   3.484 -0.8020  0.6704 -0.2142
  169DOPC  H18Y23321   1.583   0.440   3.393 -2.7903  0.5490  1.3310
  169DOPC  H18Z23322   1.672   0.582   3.306 -0.7778  1.7630  0.2054
  170DOPC     N23323   0.637   2.274   0.887 -0.1922  0.6804  0.7186
  170DOPC   C1223324   0.649   2.123   0.884  0.2794 -0.1374 -0.0061
  170DOPC  H12A23325   0.754   2.101   0.893  0.4915  1.3558  1.5474
  170DOPC  H12B23326   0.599   2.077   0.799  0.4492  0.9706 -0.7231
  170DOPC   C1323327   0.721   2.313   1.005 -0.0591  0.1129 -0.2485
  170DOPC  H13A23328   0.715   2.419   1.021 -0.4236 -0.2829  2.8592
  170DOPC  H13B23329   0.674   2.265   1.090  1.7874 -0.1521  0.6788
  170DOPC  H13C23330   0.825   2.291   0.984  0.1462  1.8031 -1.1403
  170DOPC   C1423331   0.488   2.310   0.882 -0.0428  0.0312 -0.7521
  170DOPC  H14A23332   0.434   2.251   0.809  0.3243 -0.3921 -0.6826
  170DOPC  H14B23333   0.449   2.286   0.980  0.8752 -0.1178 -0.4166
  170DOPC  H14C23334   0.479   2.417   0.870  1.6461  0.6990  2.6827
  170DOPC   C1523335   0.696   2.338   0.765  0.2316  0.1467 -0.4579
  170DOPC  H15A23336   0.719   2.442   0.777 -1.1235  0.6570 -1.9201
  170DOPC  H15B23337   0.628   2.339   0.681 -0.5583  0.9329  0.1690
  170DOPC  H15C23338   0.788   2.290   0.736 -0.0022  0.0336 -1.0399
  170DOPC   C1123339   0.587   2.047   1.011 -0.2912  0.0789  0.4127
  170DOPC  H11A23340   0.480   2.071   1.025 -0.2513  1.4493 -1.3312
  170DOPC  H11B23341   0.596   1.943   0.975  1.8412  1.3100 -3.1621
  170DOPC     P23342   0.759   1.976   1.182 -0.0778 -0.0286 -0.1287
  170DOPC   O1323343   0.862   1.959   1.080  0.4974  0.8111 -0.5369
  170DOPC   O1423344   0.692   1.848   1.224 -0.3279  0.0837 -0.2163
  170DOPC   O1223345   0.655   2.077   1.139  0.5211  0.1907  0.4661
  170DOPC   O1123346   0.817   2.037   1.314  0.2967 -0.8406  0.1624
  170DOPC    C123347   0.838   2.165   1.362 -0.0901 -0.2151 -0.1881
  170DOPC    HA23348   0.739   2.213   1.377 -0.7605 -1.6390  0.0703
  170DOPC    HB23349   0.886   2.227   1.283 -0.7485 -0.5281 -0.8499
  170DOPC    C223350   0.921   2.182   1.489  0.0059  0.2927  0.7118
  170DOPC    HS23351   1.026   2.155   1.467 -0.4034 -1.6378  0.8860
  170DOPC   O2123352   0.867   2.101   1.598 -0.0470 -0.3294 -0.6641
  170DOPC   C2123353   0.963   2.056   1.689  0.6940 -0.1942  0.3746
  170DOPC   O2223354   1.083   2.072   1.673 -0.5703  0.1073  0.2332
  170DOPC   C2223355   0.897   1.964   1.791 -0.3119  0.7609  0.4761
  170DOPC   H2R23356   0.837   1.886   1.740  1.0523 -1.6012  2.2493
  170DOPC   H2S23357   0.825   2.026   1.847 -0.5576 -1.2739  2.5636
  170DOPC    C323358   0.935   2.333   1.525  0.4221 -0.3807  0.5462
  170DOPC    HX23359   0.831   2.372   1.537  0.2233 -1.0851  1.2467
  170DOPC    HY23360   0.988   2.385   1.443 -0.5518  0.4066  0.3954
  170DOPC   O3123361   0.982   2.345   1.659 -0.3110 -0.0831  0.1554
  170DOPC   C3123362   1.110   2.367   1.663 -0.1104 -0.4253 -0.3442
  170DOPC   O3223363   1.190   2.394   1.580  0.3426  0.8547 -0.2076
  170DOPC   C3223364   1.149   2.397   1.811  0.0252 -0.5186  0.2992
  170DOPC   H2X23365   1.125   2.503   1.833 -2.1700 -0.9635  0.2409
  170DOPC   H2Y23366   1.082   2.332   1.871 -0.2202 -0.7509 -0.2206
  170DOPC   C2323367   0.997   1.896   1.888  0.9509  0.0584 -0.6038
  170DOPC   H3R23368   1.053   1.973   1.944  1.1543  0.1579 -0.9377
  170DOPC   H3S23369   1.073   1.839   1.830  0.0514  0.1013 -1.8724
  170DOPC   C2423370   0.907   1.803   1.979  0.4613 -0.0294  0.1498
  170DOPC   H4R23371   0.876   1.717   1.916  1.8770 -1.5162  1.3906
  170DOPC   H4S23372   0.809   1.851   2.000  0.3609 -0.0637 -0.2210
  170DOPC   C2523373   0.980   1.755   2.097 -0.7315  0.1913 -0.3698
  170DOPC   H5R23374   1.004   1.833   2.172 -2.8110  0.1453  0.4025
  170DOPC   H5S23375   1.069   1.703   2.055 -1.4033 -1.2836 -0.0495
  170DOPC   C2623376   0.891   1.664   2.185 -0.3188  0.5302  0.1771
  170DOPC   H6R23377   0.849   1.579   2.129 -1.1585  0.3618  1.0448
  170DOPC   H6S23378   0.811   1.732   2.222  1.1546  1.3699  2.0222
  170DOPC   C2723379   0.971   1.614   2.309  0.6965  0.3274  0.4470
  170DOPC   H7R23380   1.006   1.694   2.377  0.5102 -1.2017  2.4434
  170DOPC   H7S23381   1.060   1.561   2.267 -1.0401 -1.5892 -0.9880
  170DOPC   C2823382   0.885   1.515   2.396  0.6511  0.1621  0.1822
  170DOPC   H8R23383   0.828   1.459   2.318 -1.1271 -0.5065  1.8787
  170DOPC   H8S23384   0.805   1.570   2.450  1.8298  0.1690  1.9655
  170DOPC   C2923385   0.963   1.413   2.479 -0.1534  0.3367  1.1568
  170DOPC   H9R23386   1.052   1.370   2.431 -2.6026 -1.9700 -1.7329
  170DOPC  C21023387   0.931   1.364   2.599 -0.1474  0.8556  0.2567
  170DOPC  H10R23388   0.989   1.284   2.646  0.5280 -1.8055 -4.4522
  170DOPC  C21123389   0.822   1.415   2.685  0.2107 -0.1720  0.3584
  170DOPC  H11R23390   0.746   1.335   2.702 -1.6393  1.0567 -1.5860
  170DOPC  H11S23391   0.763   1.500   2.646  1.3167  1.2261  1.6226
  170DOPC  C21223392   0.878   1.443   2.830 -0.0039 -0.0054  0.1646
  170DOPC  H12R23393   0.957   1.521   2.826 -0.1112  0.0765 -0.6393
  170DOPC  H12S23394   0.931   1.354   2.868  0.5349  0.0875 -0.3590
  170DOPC  C21323395   0.755   1.479   2.919  0.5263 -0.2801  0.9081
  170DOPC  H13R23396   0.701   1.395   2.969  3.7163 -3.3650 -0.3455
  170DOPC  H13S23397   0.692   1.547   2.859  0.2752 -1.4760 -0.2274
  170DOPC  C21423398   0.804   1.552   3.044  0.1992 -0.3838 -0.4821
  170DOPC  H14R23399   0.873   1.631   3.008 -0.9258  1.1317  0.5354
  170DOPC  H14S23400   0.874   1.480   3.092  0.6738  0.7344  0.5567
  170DOPC  C21523401   0.704   1.602   3.143  0.1814 -0.0194 -0.1095
  170DOPC  H15R23402   0.664   1.506   3.184 -0.0989  1.1364  2.5645
  170DOPC  H15S23403   0.628   1.666   3.094 -2.4000 -1.4478  1.8047
  170DOPC  C21623404   0.761   1.688   3.255  0.2714 -0.2094 -0.6082
  170DOPC  H16R23405   0.835   1.756   3.208  0.8323 -1.1768 -1.1418
  170DOPC  H16S23406   0.815   1.628   3.331 -0.8030 -0.6472 -0.1739
  170DOPC  C21723407   0.656   1.772   3.326  0.5001  0.2210  0.3383
  170DOPC  H17R23408   0.580   1.701   3.364  1.9889 -1.5596  0.1204
  170DOPC  H17S23409   0.609   1.843   3.255 -0.8312 -1.1012 -0.1525
  170DOPC  C21823410   0.714   1.848   3.440 -0.2187 -0.6352 -0.0764
  170DOPC  H18R23411   0.714   1.790   3.535  3.0839 -0.8006 -0.0668
  170DOPC  H18S23412   0.657   1.943   3.447 -1.0852 -1.0790 -0.8230
  170DOPC  H18T23413   0.819   1.870   3.411  0.1503  0.7885  2.1021
  170DOPC   C3323414   1.299   2.368   1.841 -0.4101  0.4404 -0.0166
  170DOPC   H3X23415   1.378   2.424   1.786 -0.1237 -0.8279 -0.9589
  170DOPC   H3Y23416   1.314   2.263   1.807 -0.3565  0.4536 -0.0340
  170DOPC   C3423417   1.326   2.350   1.985 -0.1644 -0.1641  1.0602
  170DOPC   H4X23418   1.317   2.443   2.044  1.4959  1.1555 -0.6565
  170DOPC   H4Y23419   1.435   2.325   1.993 -0.3531 -3.0140 -2.4086
  170DOPC   C3523420   1.256   2.227   2.045 -0.5031 -0.6531  0.6279
  170DOPC   H5X23421   1.242   2.148   1.968 -2.7259 -0.0979  0.4013
  170DOPC   H5Y23422   1.154   2.260   2.073 -0.6514 -0.4152 -0.1540
  170DOPC   C3623423   1.328   2.193   2.173  0.3602 -0.5276  0.2336
  170DOPC   H6X23424   1.411   2.123   2.151  0.0329 -1.2380  1.1559
  170DOPC   H6Y23425   1.369   2.279   2.231 -1.0673  0.1248  0.3267
  170DOPC   C3723426   1.234   2.127   2.280 -0.1725  0.8430  0.0372
  170DOPC   H7X23427   1.181   2.040   2.236 -0.9706 -0.1068  2.6498
  170DOPC   H7Y23428   1.298   2.082   2.359 -0.7877 -0.1205  0.0007
  170DOPC   C3823429   1.115   2.204   2.341 -0.1484 -0.0629 -0.0399
  170DOPC   H8X23430   1.044   2.240   2.265 -0.0734 -0.0549 -0.1060
  170DOPC   H8Y23431   1.159   2.295   2.387 -2.3900 -0.3779  3.0729
  170DOPC   C3923432   1.046   2.116   2.449 -0.3176  0.4317  0.7126
  170DOPC   H9X23433   1.001   2.027   2.404 -0.0494  1.3038 -1.4101
  170DOPC  C31023434   1.030   2.140   2.579 -1.2227 -0.6273  0.1951
  170DOPC  H10X23435   0.971   2.073   2.644  1.0362  0.0463  3.1333
  170DOPC  C31123436   1.087   2.256   2.654  0.8647 -0.8351  0.0132
  170DOPC  H11X23437   1.188   2.277   2.613  0.5331  1.6734  0.3423
  170DOPC  H11Y23438   1.097   2.224   2.760 -1.2111 -0.7259  0.2882
  170DOPC  C31223439   0.997   2.383   2.634 -0.0943  0.1102 -0.8274
  170DOPC  H12X23440   1.011   2.411   2.528  1.1435 -0.7302 -0.9128
  170DOPC  H12Y23441   1.038   2.462   2.700 -0.3786  0.4149 -1.0175
  170DOPC  C31323442   0.857   2.361   2.682 -0.0281 -0.6627 -0.3149
  170DOPC  H13X23443   0.795   2.442   2.638  0.0747  0.5470  1.6112
  170DOPC  H13Y23444   0.804   2.272   2.644 -0.4680 -2.1991  3.4500
  170DOPC  C31423445   0.841   2.350   2.829 -0.2247  0.2353  0.0141
  170DOPC  H14X23446   0.886   2.251   2.853  1.1059  0.3034 -1.9552
  170DOPC  H14Y23447   0.894   2.435   2.878  1.9220 -0.9484 -0.0983
  170DOPC  C31523448   0.704   2.356   2.906 -0.5855  0.4795  0.2000
  170DOPC  H15X23449   0.680   2.464   2.921 -0.0982  0.7923 -1.2045
  170DOPC  H15Y23450   0.710   2.294   2.998  2.0679 -0.0671 -0.2552
  170DOPC  C31623451   0.595   2.299   2.814 -0.8294 -0.6570  1.0227
  170DOPC  H16X23452   0.589   2.341   2.711 -0.9022  2.0347  2.0560
  170DOPC  H16Y23453   0.612   2.192   2.792 -0.9953 -0.0873 -2.4497
  170DOPC  C31723454   0.453   2.318   2.881  0.8734  0.3521  0.1471
  170DOPC  H17X23455   0.456   2.271   2.981 -0.8783 -2.4446 -0.9804
  170DOPC  H17Y23456   0.430   2.427   2.885  1.5130  0.5285 -0.6841
  170DOPC  C31823457   0.336   2.256   2.804 -0.5831 -0.1771 -0.4027
  170DOPC  H18X23458   0.340   2.147   2.783 -0.0624 -0.5989  1.6639
  170DOPC  H18Y23459   0.246   2.283   2.863  0.9491  0.0453  1.9449
  170DOPC  H18Z23460   0.310   2.317   2.714  1.4728  0.1568 -0.8310
  171DOPC     N23461   0.678   3.531   1.570  0.2587 -0.6741 -0.6998
  171DOPC   C1223462   0.819   3.557   1.628 -0.2321 -0.2892 -0.5649
  171DOPC  H12A23463   0.826   3.662   1.654  1.2705 -0.0121 -1.9064
  171DOPC  H12B23464   0.897   3.538   1.556  0.6887  1.1022  0.0331
  171DOPC   C1323465   0.571   3.561   1.672 -0.2252 -0.3343 -0.6392
  171DOPC  H13A23466   0.597   3.496   1.755 -0.0232  0.0384 -0.4079
  171DOPC  H13B23467   0.585   3.666   1.694 -0.9240  0.0218 -1.7675
  171DOPC  H13C23468   0.473   3.538   1.633 -0.0097 -0.0117 -1.3869
  171DOPC   C1423469   0.668   3.389   1.529 -0.5185 -0.1677 -0.3640
  171DOPC  H14A23470   0.568   3.362   1.499 -0.0510 -0.7955 -1.4236
  171DOPC  H14B23471   0.743   3.368   1.454  2.0995 -2.3963  2.5917
  171DOPC  H14C23472   0.696   3.333   1.617  1.5129 -0.7302 -1.3090
  171DOPC   C1523473   0.659   3.628   1.459 -0.4197  0.0114 -0.3275
  171DOPC  H15A23474   0.561   3.622   1.415 -1.6441  1.8582  1.9187
  171DOPC  H15B23475   0.728   3.615   1.376  1.8652 -0.4801  1.5520
  171DOPC  H15C23476   0.663   3.728   1.501  0.5788 -0.3586  0.4890
  171DOPC   C1123477   0.863   3.468   1.753 -0.1223  0.4965  0.1968
  171DOPC  H11A23478   0.954   3.503   1.806 -0.1215  1.4487 -0.4018
  171DOPC  H11B23479   0.786   3.481   1.832  1.6625  0.5535  1.9833
  171DOPC     P23480   1.012   3.266   1.666 -0.0477 -0.0812  0.2792
  171DOPC   O1323481   1.079   3.359   1.560 -0.4761 -0.2136 -0.7735
  171DOPC   O1423482   0.990   3.123   1.628  0.7079 -0.1361  0.5154
  171DOPC   O1223483   0.876   3.331   1.712 -0.5448 -0.2973 -0.2984
  171DOPC   O1123484   1.091   3.271   1.803  0.1014  1.1947 -0.1193
  171DOPC    C123485   1.237   3.256   1.799  0.5417 -0.2250  0.6774
  171DOPC    HA23486   1.274   3.302   1.893 -0.0764  0.0649  0.7818
  171DOPC    HB23487   1.283   3.303   1.710  0.7999  0.9605  1.4214
  171DOPC    C223488   1.286   3.104   1.798  0.7447  0.5621  0.1559
  171DOPC    HS23489   1.267   3.052   1.701 -0.5259 -2.2358  1.7811
  171DOPC   O2123490   1.209   3.030   1.904  0.3949 -0.1413  0.2425
  171DOPC   C2123491   1.222   2.896   1.899  0.4001  0.0250 -0.8439
  171DOPC   O2223492   1.278   2.833   1.809  0.0402 -0.0271 -0.4215
  171DOPC   C2223493   1.161   2.842   2.028  0.2166  0.5729 -0.2811
  171DOPC   H2R23494   1.066   2.898   2.042  0.2209  0.6207 -0.4406
  171DOPC   H2S23495   1.228   2.875   2.111  0.6148  1.0722 -0.7904
  171DOPC    C323496   1.435   3.100   1.824 -0.4708  0.0273  0.0968
  171DOPC    HX23497   1.489   3.157   1.747 -0.6374 -0.5522 -0.4574
  171DOPC    HY23498   1.470   2.997   1.799  0.8387  0.6318 -0.6377
  171DOPC   O3123499   1.478   3.150   1.956 -0.1047  0.1868  0.1335
  171DOPC   C3123500   1.496   3.067   2.055  0.2193 -0.0878  0.4701
  171DOPC   O3223501   1.488   2.945   2.056  0.1958 -0.5913  0.2261
  171DOPC   C3223502   1.530   3.149   2.174  0.1051 -0.2702 -0.3127
  171DOPC   H2X23503   1.613   3.216   2.146 -1.0634  0.6777 -1.6544
  171DOPC   H2Y23504   1.447   3.219   2.196  1.3085  1.3460 -0.7417
  171DOPC   C2323505   1.134   2.693   2.030 -0.4030 -0.0595  0.2893
  171DOPC   H3R23506   1.212   2.628   1.985 -0.2238 -0.3170  0.9619
  171DOPC   H3S23507   1.042   2.668   1.972  0.5653 -0.6289 -1.0550
  171DOPC   C2423508   1.113   2.641   2.171 -0.5325  0.2298  0.4513
  171DOPC   H4R23509   1.213   2.650   2.219  0.0078 -1.7086 -0.2523
  171DOPC   H4S23510   1.103   2.531   2.170 -1.2417  0.2789  1.0057
  171DOPC   C2523511   0.989   2.686   2.241 -0.4350  0.5022 -0.3278
  171DOPC   H5R23512   0.915   2.679   2.158  0.7854  1.8033 -1.5765
  171DOPC   H5S23513   1.002   2.794   2.265  0.6489  0.5756 -1.1855
  171DOPC   C2623514   0.937   2.609   2.366 -0.7577  0.6401 -0.0112
  171DOPC   H6R23515   1.015   2.603   2.445 -1.3276 -0.4037  0.4915
  171DOPC   H6S23516   0.907   2.505   2.340  0.1759  0.2743  0.3041
  171DOPC   C2723517   0.821   2.676   2.437  0.8360 -0.5654 -0.1769
  171DOPC   H7R23518   0.785   2.601   2.511 -0.0175 -1.8463 -1.8259
  171DOPC   H7S23519   0.739   2.703   2.367  0.6514 -2.6391 -0.8187
  171DOPC   C2823520   0.867   2.802   2.525  0.2360 -0.2519  0.2363
  171DOPC   H8R23521   0.947   2.855   2.470  0.2072  0.5123  0.9157
  171DOPC   H8S23522   0.905   2.780   2.627  1.2099 -0.2731 -0.1282
  171DOPC   C2923523   0.756   2.902   2.545  1.4618  0.1146 -0.1390
  171DOPC   H9R23524   0.762   2.983   2.472  0.7316 -1.1825 -1.7085
  171DOPC  C21023525   0.655   2.898   2.642 -0.2500 -0.1621  0.0329
  171DOPC  H10R23526   0.571   2.967   2.657 -0.3683 -0.4578  0.8047
  171DOPC  C21123527   0.648   2.792   2.751  0.3653  0.2372 -0.1178
  171DOPC  H11R23528   0.707   2.703   2.721 -3.1195 -1.7188 -1.8739
  171DOPC  H11S23529   0.545   2.751   2.757  0.7692 -0.6783  0.6710
  171DOPC  C21223530   0.691   2.847   2.888 -0.0353  0.0246 -0.7241
  171DOPC  H12R23531   0.797   2.880   2.895  0.2030 -0.8571 -0.0473
  171DOPC  H12S23532   0.682   2.761   2.957  2.8831 -0.1112 -0.3787
  171DOPC  C21323533   0.602   2.955   2.950  0.4597  0.7614 -0.1432
  171DOPC  H13R23534   0.496   2.922   2.944  0.6511 -0.4244  1.9346
  171DOPC  H13S23535   0.622   3.042   2.884  5.7528 -0.0977 -0.1274
  171DOPC  C21423536   0.640   2.990   3.098 -0.9081 -0.1965  0.4498
  171DOPC  H14R23537   0.631   2.892   3.151  0.8462 -0.9076 -0.4741
  171DOPC  H14S23538   0.563   3.056   3.143 -1.4007 -1.0451  0.8994
  171DOPC  C21523539   0.779   3.046   3.113  0.8118 -0.9660  0.1412
  171DOPC  H15R23540   0.783   3.123   3.034 -0.6449 -2.5318 -1.5612
  171DOPC  H15S23541   0.851   2.972   3.070  2.0214  0.9146 -1.2014
  171DOPC  C21623542   0.814   3.090   3.254  0.4989 -0.1358 -0.0050
  171DOPC  H16R23543   0.832   3.004   3.323  2.2514  1.3479  1.4965
  171DOPC  H16S23544   0.737   3.160   3.293 -0.8162 -0.0653 -2.5461
  171DOPC  C21723545   0.947   3.155   3.253 -0.3627 -0.0528  1.2561
  171DOPC  H17R23546   0.943   3.246   3.190  0.1930 -1.3735 -0.7705
  171DOPC  H17S23547   1.028   3.095   3.207 -0.7873  0.5377 -0.3185
  171DOPC  C21823548   1.001   3.195   3.389  0.3208 -0.2706 -0.2497
  171DOPC  H18R23549   1.072   3.280   3.392  0.1923 -0.1884  0.7731
  171DOPC  H18S23550   1.054   3.110   3.435 -2.4218 -1.3755  1.1261
  171DOPC  H18T23551   0.923   3.220   3.464  1.2952 -1.1838  1.0894
  171DOPC   C3323552   1.565   3.068   2.305  0.0462  0.1549 -0.0003
  171DOPC   H3X23553   1.636   2.984   2.295  0.5306  0.5138  0.3908
  171DOPC   H3Y23554   1.470   3.014   2.327  0.1198 -0.5104 -1.2366
  171DOPC   C3423555   1.597   3.166   2.421  0.2487  0.2314  0.3884
  171DOPC   H4X23556   1.522   3.248   2.426  1.0940  1.1114 -0.9986
  171DOPC   H4Y23557   1.690   3.219   2.392  0.4934 -0.3408  0.1080
  171DOPC   C3523558   1.610   3.096   2.556 -0.4129 -0.0359  0.1350
  171DOPC   H5X23559   1.690   3.019   2.554 -0.1629  0.2240 -0.0363
  171DOPC   H5Y23560   1.516   3.043   2.583  0.4614 -1.3024  0.7889
  171DOPC   C3623561   1.636   3.194   2.673 -0.8045 -0.1475 -0.5567
  171DOPC   H6X23562   1.555   3.270   2.670 -0.1611  0.5090 -2.6340
  171DOPC   H6Y23563   1.618   3.154   2.775 -0.5722 -1.2310 -0.9237
  171DOPC   C3723564   1.779   3.266   2.677  0.4002  0.3174  0.4196
  171DOPC   H7X23565   1.798   3.301   2.573 -0.1654  1.5073  0.7021
  171DOPC   H7Y23566   1.777   3.360   2.736 -0.9058 -0.4096  1.5790
  171DOPC   C3823567   1.887   3.175   2.722  0.0354 -0.3283  0.1380
  171DOPC   H8X23568   1.890   3.083   2.660 -0.7569 -0.5596  0.4296
  171DOPC   H8Y23569   1.882   3.147   2.829 -0.0452  0.8152  0.4464
  171DOPC   C3923570   2.021   3.236   2.684  0.0719 -0.1562 -0.9619
  171DOPC   H9X23571   2.022   3.283   2.584  1.6467 -0.5418 -1.1520
  171DOPC  C31023572   2.137   3.219   2.743 -0.0341  0.2191 -0.2179
  171DOPC  H10X23573   2.223   3.260   2.687 -1.9471  0.3931 -3.2505
  171DOPC  C31123574   2.179   3.129   2.853 -0.5014 -0.1356 -0.4008
  171DOPC  H11X23575   2.250   3.051   2.818 -0.2783 -0.7585  1.3204
  171DOPC  H11Y23576   2.092   3.065   2.878 -0.7845 -0.0159 -1.0582
  171DOPC  C31223577   2.226   3.197   2.985  0.5147  0.0566 -0.2145
  171DOPC  H12X23578   2.325   3.244   2.964 -0.0442  0.3018 -2.5985
  171DOPC  H12Y23579   2.243   3.121   3.065  2.3604  2.0282  1.3898
  171DOPC  C31323580   2.115   3.292   3.036  0.3932 -0.5495  0.6744
  171DOPC  H13X23581   2.109   3.382   2.971  0.8329  0.4727  2.0153
  171DOPC  H13Y23582   2.016   3.245   3.019  0.0691  0.3314  0.0408
  171DOPC  C31423583   2.128   3.345   3.176  0.6036 -0.3754 -0.1699
  171DOPC  H14X23584   2.125   3.252   3.237 -1.4414 -1.0208 -1.1619
  171DOPC  H14Y23585   2.225   3.398   3.184 -1.0022  3.1198 -1.7707
  171DOPC  C31523586   2.016   3.444   3.218 -0.2522 -0.1881 -0.3532
  171DOPC  H15X23587   2.013   3.524   3.140 -1.3155 -0.1641 -0.3095
  171DOPC  H15Y23588   2.055   3.482   3.314  2.6149 -1.3092 -0.9783
  171DOPC  C31623589   1.883   3.367   3.227 -0.5194 -0.1980  0.2055
  171DOPC  H16X23590   1.873   3.335   3.121  0.6039  0.2186 -0.0430
  171DOPC  H16Y23591   1.909   3.275   3.284  1.7213 -0.0379 -0.4541
  171DOPC  C31723592   1.769   3.448   3.286  0.0545  0.0943  0.1542
  171DOPC  H17X23593   1.795   3.498   3.382  1.8921  1.5197 -1.0019
  171DOPC  H17Y23594   1.761   3.534   3.217 -2.0779 -2.1203 -2.5595
  171DOPC  C31823595   1.626   3.379   3.299 -0.2805 -0.2290  0.3381
  171DOPC  H18X23596   1.630   3.321   3.394  3.0768  0.1148  0.5564
  171DOPC  H18Y23597   1.543   3.452   3.305 -1.1280 -1.1027 -0.5599
  171DOPC  H18Z23598   1.619   3.314   3.210  2.4131  1.4501 -1.2538
  172DOPC     N23599   3.065   1.681   1.709  0.3130  0.0613 -0.0391
  172DOPC   C1223600   3.060   1.818   1.789 -0.5001  0.1233 -0.4336
  172DOPC  H12A23601   3.154   1.871   1.785  1.3521 -2.7537  0.9869
  172DOPC  H12B23602   3.057   1.790   1.894  0.3193  1.2534 -0.0892
  172DOPC   C1323603   3.068   1.703   1.560 -0.1528 -0.5479  0.5111
  172DOPC  H13A23604   3.051   1.611   1.507  0.0793 -0.0349 -0.4798
  172DOPC  H13B23605   2.986   1.768   1.533  0.9682  0.2743 -1.1200
  172DOPC  H13C23606   3.161   1.751   1.531 -0.8373 -0.3753 -1.5425
  172DOPC   C1423607   2.948   1.600   1.743 -0.1955  0.5769  0.2334
  172DOPC  H14A23608   2.862   1.654   1.706 -0.3572  0.4533  0.4231
  172DOPC  H14B23609   2.951   1.500   1.703 -0.0775  0.4138  0.6395
  172DOPC  H14C23610   2.948   1.578   1.849  3.3509 -1.1815  0.0237
  172DOPC   C1523611   3.189   1.614   1.756 -0.1312  0.3656  0.4160
  172DOPC  H15A23612   3.186   1.594   1.862 -1.8562 -0.7878  0.1996
  172DOPC  H15B23613   3.281   1.663   1.728  0.1641 -1.6391 -2.6470
  172DOPC  H15C23614   3.200   1.514   1.716  1.2373  0.6799 -0.0317
  172DOPC   C1123615   2.946   1.913   1.760 -1.0126  0.5610  0.3261
  172DOPC  H11A23616   2.850   1.858   1.774 -1.2923  1.1402  0.7352
  172DOPC  H11B23617   2.965   1.999   1.829 -0.7921  0.6075  0.2073
  172DOPC     P23618   2.848   2.066   1.574  0.0931 -0.2074 -0.1854
  172DOPC   O1323619   2.711   2.009   1.576 -0.1026 -0.8820  0.3856
  172DOPC   O1423620   2.893   2.113   1.443 -0.4119 -0.4379  0.2887
  172DOPC   O1223621   2.956   1.965   1.629  0.4390 -0.3660  0.2189
  172DOPC   O1123622   2.848   2.198   1.666  0.0708  0.4008  0.0743
  172DOPC    C123623   2.755   2.208   1.773  0.8133 -0.0239 -0.5873
  172DOPC    HA23624   2.759   2.118   1.837  1.7410  0.3161 -0.1585
  172DOPC    HB23625   2.649   2.224   1.742  0.3871 -0.3182  0.6913
  172DOPC    C223626   2.786   2.324   1.875  0.4265 -0.4277 -0.0220
  172DOPC    HS23627   2.796   2.408   1.803  0.0539 -1.2349 -1.0315
  172DOPC   O2123628   2.908   2.313   1.940  0.0493 -0.0641 -0.6218
  172DOPC   C2123629   2.961   2.420   1.983  0.3455  0.0261  0.0789
  172DOPC   O2223630   2.926   2.533   1.951  0.1234  0.2135  0.8990
  172DOPC   C2223631   3.087   2.386   2.064 -0.3325 -0.5970 -0.2793
  172DOPC   H2R23632   3.101   2.479   2.123 -1.2926 -0.2167 -0.6332
  172DOPC   H2S23633   3.170   2.379   1.992  1.2742 -0.7814  1.5156
  172DOPC    C323634   2.664   2.356   1.975  0.1354  0.4630  0.2822
  172DOPC    HX23635   2.571   2.367   1.915  0.2791 -2.3907 -0.5861
  172DOPC    HY23636   2.685   2.457   2.018 -1.1201  1.0113 -0.3373
  172DOPC   O3123637   2.650   2.256   2.077 -0.2657 -0.1854  0.3326
  172DOPC   C3123638   2.557   2.165   2.063 -0.2390  0.0555  0.4092
  172DOPC   O3223639   2.475   2.164   1.970 -0.0775 -0.4326 -0.2213
  172DOPC   C3223640   2.557   2.062   2.182  0.0269 -0.2857 -0.5230
  172DOPC   H2X23641   2.473   2.091   2.250 -1.4778 -1.7736 -1.6615
  172DOPC   H2Y23642   2.542   1.956   2.154  0.9255  0.2633 -3.4082
  172DOPC   C2323643   3.089   2.258   2.162 -0.0250 -0.3311  1.4113
  172DOPC   H3R23644   3.196   2.251   2.191 -0.0514 -0.3104  1.5119
  172DOPC   H3S23645   3.055   2.168   2.106  0.4127  0.3571 -0.0289
  172DOPC   C2423646   3.001   2.267   2.288  0.0230  0.2016  0.3606
  172DOPC   H4R23647   3.003   2.163   2.327 -0.1791  0.3477  0.7703
  172DOPC   H4S23648   2.894   2.280   2.260  0.5164  2.0036 -0.8091
  172DOPC   C2523649   3.059   2.363   2.385 -0.0319 -0.3295 -0.5422
  172DOPC   H5R23650   3.056   2.464   2.340  1.2498 -0.9775 -2.2340
  172DOPC   H5S23651   3.167   2.336   2.393 -0.4683 -1.9258  0.4566
  172DOPC   C2623652   3.002   2.350   2.530  0.0641 -0.9785  0.6713
  172DOPC   H6R23653   3.007   2.243   2.557  0.0492 -0.3732  3.4005
  172DOPC   H6S23654   2.895   2.377   2.528  0.3668  0.2812 -0.8793
  172DOPC   C2723655   3.069   2.440   2.642 -0.2776 -0.4235  0.1655
  172DOPC   H7R23656   3.074   2.545   2.605 -1.6669 -0.3529  0.0947
  172DOPC   H7S23657   3.171   2.400   2.661 -0.0779 -0.0441 -0.0938
  172DOPC   C2823658   2.977   2.444   2.761 -0.1792  0.0981 -0.4798
  172DOPC   H8R23659   2.887   2.502   2.732  0.5425  2.1550  1.1596
  172DOPC   H8S23660   3.020   2.515   2.834 -1.0006 -0.3054  0.4164
  172DOPC   C2923661   2.955   2.314   2.832 -0.3443  0.2569  0.5240
  172DOPC   H9R23662   3.035   2.239   2.819 -0.3805  0.7177 -3.3361
  172DOPC  C21023663   2.852   2.284   2.909 -0.2433  0.1159 -0.0428
  172DOPC  H10R23664   2.853   2.183   2.953 -1.8957  0.3856  0.7013
  172DOPC  C21123665   2.727   2.363   2.918  0.2034 -0.5105  1.0929
  172DOPC  H11R23666   2.740   2.462   2.868 -0.3165 -1.0453 -0.1325
  172DOPC  H11S23667   2.714   2.382   3.026 -3.6260 -2.2499  1.0901
  172DOPC  C21223668   2.600   2.294   2.865  0.3335  0.7945  0.4910
  172DOPC  H12R23669   2.520   2.358   2.907 -1.3150 -1.5982  1.1848
  172DOPC  H12S23670   2.593   2.194   2.913  0.0624 -1.0463 -3.1019
  172DOPC  C21323671   2.586   2.291   2.706 -0.7778 -0.2270  0.1483
  172DOPC  H13R23672   2.498   2.228   2.680 -1.9957  2.0212 -1.5019
  172DOPC  H13S23673   2.680   2.239   2.676  0.5710  1.6093  1.0227
  172DOPC  C21423674   2.581   2.424   2.637 -0.0073  0.1760  0.0286
  172DOPC  H14R23675   2.660   2.493   2.671 -0.3608  0.6368 -0.0774
  172DOPC  H14S23676   2.477   2.463   2.649 -0.1072  0.4908 -1.5359
  172DOPC  C21523677   2.597   2.415   2.483 -0.0753  0.5641 -0.1866
  172DOPC  H15R23678   2.535   2.336   2.435 -1.2004  0.3323  1.5447
  172DOPC  H15S23679   2.703   2.390   2.463 -0.8808 -2.5503 -1.1404
  172DOPC  C21623680   2.561   2.550   2.418  0.4319  0.0201 -0.2935
  172DOPC  H16R23681   2.587   2.635   2.486 -0.4343  0.8102 -0.9230
  172DOPC  H16S23682   2.451   2.547   2.400  0.4626  2.6688 -1.5077
  172DOPC  C21723683   2.636   2.582   2.287 -0.5550 -0.1791 -0.6997
  172DOPC  H17R23684   2.614   2.496   2.219 -1.9072 -0.3047 -0.1337
  172DOPC  H17S23685   2.745   2.580   2.307 -0.4503 -0.4030 -1.2698
  172DOPC  C21823686   2.608   2.712   2.218  0.0038 -0.0646 -0.8335
  172DOPC  H18R23687   2.686   2.740   2.145  3.4325 -0.3444  2.4304
  172DOPC  H18S23688   2.611   2.788   2.299 -1.6795  0.4416 -1.2018
  172DOPC  H18T23689   2.505   2.717   2.177 -1.3618  1.5155  2.3872
  172DOPC   C3323690   2.684   2.054   2.268 -0.3763  0.5089  1.0577
  172DOPC   H3X23691   2.712   2.159   2.289  2.2434  0.3853 -1.2978
  172DOPC   H3Y23692   2.768   2.012   2.208 -2.0334 -1.0173 -0.3346
  172DOPC   C3423693   2.655   1.982   2.396 -0.1794 -0.4006 -0.0652
  172DOPC   H4X23694   2.647   1.871   2.397  1.0884 -0.5252  1.8837
  172DOPC   H4Y23695   2.560   2.006   2.448  0.0738 -1.3448  0.8621
  172DOPC   C3523696   2.760   2.018   2.498 -0.4592 -0.1577  0.6439
  172DOPC   H5X23697   2.746   2.126   2.519  1.2858  0.8642 -2.7561
  172DOPC   H5Y23698   2.858   2.015   2.446 -0.5860  0.6757  0.3344
  172DOPC   C3623699   2.747   1.924   2.612 -0.4344  0.1112 -0.2577
  172DOPC   H6X23700   2.653   1.936   2.669  1.1778 -0.3865  2.7076
  172DOPC   H6Y23701   2.741   1.818   2.576  4.1549 -0.0756 -1.0973
  172DOPC   C3723702   2.875   1.925   2.706  1.0802  0.3982 -0.3647
  172DOPC   H7X23703   2.964   1.902   2.643  2.7599  1.0153  1.6702
  172DOPC   H7Y23704   2.889   2.023   2.755  0.7859  0.2703 -0.0208
  172DOPC   C3823705   2.863   1.814   2.820 -0.3620 -0.2321  0.4547
  172DOPC   H8X23706   2.969   1.796   2.847  0.0394 -1.4067 -1.6506
  172DOPC   H8Y23707   2.814   1.719   2.789 -2.2603  0.9293 -0.3024
  172DOPC   C3923708   2.783   1.881   2.933  0.5603 -0.2005 -0.2391
  172DOPC   H9X23709   2.679   1.907   2.909  0.3081  0.5524  1.4823
  172DOPC  C31023710   2.829   1.907   3.055  0.0138  0.0013 -0.3723
  172DOPC  H10X23711   2.763   1.974   3.111 -0.6079 -1.0325  0.1472
  172DOPC  C31123712   2.970   1.884   3.109 -0.2174  0.0288  0.3025
  172DOPC  H11X23713   3.029   1.979   3.109 -0.0511 -0.0638  1.3227
  172DOPC  H11Y23714   3.033   1.817   3.047 -0.1655 -0.2768  0.6828
  172DOPC  C31223715   2.973   1.832   3.253  0.1382 -0.6198  0.2344
  172DOPC  H12X23716   2.931   1.730   3.259 -1.0814 -0.1015  0.7491
  172DOPC  H12Y23717   2.906   1.902   3.308 -0.1875 -0.7708  0.0302
  172DOPC  C31323718   3.120   1.823   3.314  0.4188 -0.6204  0.3713
  172DOPC  H13X23719   3.179   1.750   3.255  1.4470  0.5274 -0.0794
  172DOPC  H13Y23720   3.171   1.919   3.290  1.9832 -1.4320  0.3266
  172DOPC  C31423721   3.125   1.787   3.466  0.2244 -0.4331  1.1474
  172DOPC  H14X23722   3.044   1.712   3.478 -2.4046  1.9754 -0.3130
  172DOPC  H14Y23723   3.228   1.747   3.476  0.9047  0.9279  0.0506
  172DOPC  C31523724   3.087   1.913   3.553  0.7258 -0.6170  0.2508
  172DOPC  H15X23725   2.994   1.959   3.514  0.4550 -1.4658 -0.1245
  172DOPC  H15Y23726   3.171   1.984   3.536  1.1591 -1.4508 -1.3731
  172DOPC  C31623727   3.071   1.866   3.694 -0.2390  0.9327 -0.4481
  172DOPC  H16X23728   2.995   1.786   3.685  0.2202  0.2537  1.2622
  172DOPC  H16Y23729   3.171   1.832   3.728  0.4170  3.1077 -0.0427
  172DOPC  C31723730   3.013   1.979   3.781 -0.4980  0.4529 -0.1566
  172DOPC  H17X23731   2.920   2.019   3.735 -0.8948  2.2281  2.0367
  172DOPC  H17Y23732   2.984   1.932   3.877 -0.6662  0.0755 -0.3903
  172DOPC  C31823733   3.114   2.096   3.799 -0.0800  0.7553 -0.8318
  172DOPC  H18X23734   3.066   2.183   3.847 -1.3424 -0.9247  1.1342
  172DOPC  H18Y23735   3.209   2.075   3.853 -0.3831 -0.4845 -0.7483
  172DOPC  H18Z23736   3.156   2.122   3.699  1.5921  0.4781 -0.2242
  173DOPC     N23737   3.955   4.991   1.467  0.1495 -0.1742  0.4718
  173DOPC   C1223738   4.048   4.965   1.588 -0.2345 -0.4024 -0.1211
  173DOPC  H12A23739   4.052   5.056   1.647  2.9125 -1.2207  1.1462
  173DOPC  H12B23740   4.150   4.949   1.557 -0.5438 -0.9147 -0.9178
  173DOPC   C1323741   3.999   5.126   1.415  0.4648 -0.1929 -0.2597
  173DOPC  H13A23742   4.102   5.144   1.442  0.0840  5.3540 -1.3142
  173DOPC  H13B23743   3.987   5.133   1.308  0.1228  1.1586 -0.1518
  173DOPC  H13C23744   3.940   5.208   1.454 -1.2109 -1.4250 -0.1118
  173DOPC   C1423745   3.807   5.000   1.507  0.1700 -0.1065  0.2529
  173DOPC  H14A23746   3.794   4.921   1.580  1.3251 -1.0456 -0.5343
  173DOPC  H14B23747   3.784   5.096   1.552 -0.9385 -0.4018  0.3508
  173DOPC  H14C23748   3.749   4.960   1.425  0.7819 -1.8525  0.6324
  173DOPC   C1523749   3.983   4.886   1.366  0.6235 -0.6419  0.2500
  173DOPC  H15A23750   3.919   4.896   1.280  0.7024 -0.9992  0.1475
  173DOPC  H15B23751   3.970   4.786   1.405  2.5350 -1.2935 -0.6477
  173DOPC  H15C23752   4.087   4.901   1.338  0.3455  1.2133  0.0884
  173DOPC   C1123753   4.016   4.842   1.680 -0.1032 -0.4199 -0.6263
  173DOPC  H11A23754   4.077   4.857   1.772 -1.5194 -0.2730  0.3332
  173DOPC  H11B23755   3.911   4.844   1.719  0.1751  0.1976  0.1290
  173DOPC     P23756   4.195   4.676   1.574 -0.2584 -0.4302  0.1721
  173DOPC   O1323757   4.270   4.795   1.522  0.3001  0.7245  0.0067
  173DOPC   O1423758   4.176   4.559   1.488 -0.2302 -0.7846  0.4370
  173DOPC   O1223759   4.044   4.719   1.618 -0.0338 -0.8664  0.0839
  173DOPC   O1123760   4.249   4.627   1.715 -0.5418 -0.5023  0.0338
  173DOPC    C123761   4.181   4.528   1.792  0.0248  0.3493 -0.7366
  173DOPC    HA23762   4.187   4.425   1.750 -0.4054  0.8784 -2.1357
  173DOPC    HB23763   4.076   4.554   1.813 -0.6106 -2.6710  0.3252
  173DOPC    C223764   4.235   4.544   1.937  0.5451  1.3086 -0.0093
  173DOPC    HS23765   4.188   4.473   2.008  1.5745 -0.4725 -1.0207
  173DOPC   O2123766   4.237   4.680   1.984  0.6035  0.2261  0.1496
  173DOPC   C2123767   4.129   4.717   2.052  0.5720 -0.3614 -0.0171
  173DOPC   O2223768   4.027   4.653   2.073 -0.0289 -0.3302  0.4713
  173DOPC   C2223769   4.153   4.847   2.113 -0.9052  0.3898 -0.8266
  173DOPC   H2R23770   4.066   4.879   2.175 -0.0007  2.3535 -0.4774
  173DOPC   H2S23771   4.172   4.917   2.029 -0.5468  0.7725 -0.4275
  173DOPC    C323772   4.390   4.515   1.941  0.3375  0.0001 -0.1702
  173DOPC    HX23773   4.445   4.583   1.873 -1.3641  0.4260 -1.1683
  173DOPC    HY23774   4.402   4.411   1.904 -0.4123 -0.2297  0.2116
  173DOPC   O3123775   4.446   4.538   2.080  0.1732  0.3133  0.0565
  173DOPC   C3123776   4.575   4.545   2.083  0.1363  0.7987 -0.2561
  173DOPC   O3223777   4.649   4.538   1.984 -0.9527  0.0613 -0.3001
  173DOPC   C3223778   4.626   4.570   2.230 -1.2077 -0.2713 -1.1228
  173DOPC   H2X23779   4.606   4.677   2.253 -0.3884 -0.2472 -0.4672
  173DOPC   H2Y23780   4.557   4.510   2.293 -1.7785  2.8950  1.5419
  173DOPC   C2323781   4.276   4.848   2.219  0.5103 -0.5317  0.9365
  173DOPC   H3R23782   4.287   4.953   2.253  0.2132 -0.1525 -0.1079
  173DOPC   H3S23783   4.360   4.819   2.153 -0.7081 -0.1416 -0.8728
  173DOPC   C2423784   4.251   4.751   2.343 -0.2076 -0.8068  0.7836
  173DOPC   H4R23785   4.239   4.648   2.302  0.9339  0.1351 -2.1845
  173DOPC   H4S23786   4.159   4.767   2.403 -0.4237 -3.7037  1.3752
  173DOPC   C2523787   4.375   4.760   2.440  0.0713  0.0885 -0.2136
  173DOPC   H5R23788   4.415   4.862   2.422 -0.4009  0.7793  2.2297
  173DOPC   H5S23789   4.453   4.695   2.397 -0.8253  0.4378 -2.4711
  173DOPC   C2623790   4.345   4.736   2.590  0.7056  0.2478  0.2819
  173DOPC   H6R23791   4.256   4.794   2.620 -0.4191  0.2882 -2.8074
  173DOPC   H6S23792   4.427   4.780   2.652  1.6673 -0.9587 -0.0888
  173DOPC   C2723793   4.337   4.588   2.612  0.0423  0.2156  0.5715
  173DOPC   H7R23794   4.415   4.532   2.556 -2.4325 -1.9004 -0.9433
  173DOPC   H7S23795   4.247   4.548   2.562  0.3715 -0.7278  0.7138
  173DOPC   C2823796   4.336   4.555   2.765  0.1459  0.4995  0.6148
  173DOPC   H8R23797   4.421   4.612   2.808  1.9493 -0.7247 -1.1276
  173DOPC   H8S23798   4.353   4.448   2.788 -0.6870  0.1092 -0.4736
  173DOPC   C2923799   4.205   4.597   2.829 -0.2365  0.9234 -0.1606
  173DOPC   H9R23800   4.114   4.555   2.784 -0.3717 -2.2515  2.6547
  173DOPC  C21023801   4.185   4.682   2.924  0.2162  0.1461 -0.1790
  173DOPC  H10R23802   4.081   4.678   2.960  0.4465  0.1015  0.4757
  173DOPC  C21123803   4.301   4.753   2.988  0.4273 -0.3142 -0.5428
  173DOPC  H11R23804   4.352   4.822   2.918  1.4079 -0.7909 -0.3077
  173DOPC  H11S23805   4.377   4.678   3.018  2.4996  0.5505 -3.2626
  173DOPC  C21223806   4.268   4.850   3.103  0.5503 -0.7578 -0.6519
  173DOPC  H12R23807   4.175   4.909   3.090  1.1200  1.1243  2.6675
  173DOPC  H12S23808   4.349   4.922   3.126  0.0244 -0.1310 -0.7595
  173DOPC  C21323809   4.250   4.784   3.246 -0.0676 -0.0620 -0.6188
  173DOPC  H13R23810   4.245   4.876   3.307 -0.7072 -0.1626 -0.5098
  173DOPC  H13S23811   4.342   4.729   3.277  0.8495  0.4361 -2.3279
  173DOPC  C21423812   4.122   4.698   3.258 -0.7288  0.4416 -0.0324
  173DOPC  H14R23813   4.107   4.650   3.357 -2.2479  1.3302  0.2061
  173DOPC  H14S23814   4.128   4.625   3.175 -1.0520  1.8670 -1.3654
  173DOPC  C21523815   3.996   4.786   3.253 -0.4064 -0.4083 -0.0667
  173DOPC  H15R23816   3.986   4.831   3.152 -3.0925  0.9281  0.6904
  173DOPC  H15S23817   4.008   4.860   3.335  0.1857 -0.2873 -0.2581
  173DOPC  C21623818   3.864   4.713   3.279 -0.0717  0.6241 -0.3088
  173DOPC  H16R23819   3.859   4.626   3.211  1.7817  0.5715 -0.4312
  173DOPC  H16S23820   3.776   4.774   3.248 -0.7699 -0.1322  0.1259
  173DOPC  C21723821   3.840   4.670   3.427 -0.0728 -0.1511  0.4756
  173DOPC  H17R23822   3.827   4.765   3.483 -2.7789 -0.1189 -0.0764
  173DOPC  H17S23823   3.934   4.627   3.467  0.6804 -0.9298 -1.9753
  173DOPC  C21823824   3.725   4.577   3.455 -0.4917 -0.3465  0.5618
  173DOPC  H18R23825   3.724   4.555   3.564 -0.1846 -0.7798  0.4803
  173DOPC  H18S23826   3.750   4.475   3.417 -0.4536 -1.0512  2.3665
  173DOPC  H18T23827   3.630   4.620   3.419  0.0541  0.9292  0.6159
  173DOPC   C3323828   4.788   4.543   2.236  0.3081  0.5504  0.3338
  173DOPC   H3X23829   4.843   4.600   2.157 -0.7267  1.6509  0.3862
  173DOPC   H3Y23830   4.797   4.433   2.223 -2.6257  0.5537 -3.4563
  173DOPC   C3423831   4.849   4.597   2.364  0.3469  0.3664  0.0656
  173DOPC   H4X23832   4.832   4.706   2.359 -0.5899  0.2488  0.4291
  173DOPC   H4Y23833   4.959   4.586   2.365  0.6910  2.8652 -1.9151
  173DOPC   C3523834   4.770   4.559   2.486 -0.0814 -0.0196 -0.0226
  173DOPC   H5X23835   4.752   4.450   2.473  1.7992 -0.3112 -0.3867
  173DOPC   H5Y23836   4.675   4.616   2.488  0.0952  0.2586  1.6890
  173DOPC   C3623837   4.847   4.595   2.612 -0.1932  0.2992 -0.2281
  173DOPC   H6X23838   4.911   4.513   2.652  0.5235  0.0890 -1.7248
  173DOPC   H6Y23839   4.908   4.685   2.591 -0.4165  0.4438 -0.2588
  173DOPC   C3723840   4.743   4.628   2.732 -0.2104 -0.8145 -0.2442
  173DOPC   H7X23841   4.663   4.698   2.700 -2.4856 -3.6214 -1.0395
  173DOPC   H7Y23842   4.684   4.535   2.749  1.6193 -1.8717  0.6810
  173DOPC   C3823843   4.806   4.676   2.869  0.4065  0.3495  0.7402
  173DOPC   H8X23844   4.861   4.770   2.848 -2.6771  1.9411 -1.0662
  173DOPC   H8Y23845   4.876   4.602   2.912  0.1244  0.0904  0.7606
  173DOPC   C3923846   4.705   4.720   2.974 -0.2647 -0.1511  0.6140
  173DOPC   H9X23847   4.666   4.822   2.962  1.6478  0.4934 -0.5729
  173DOPC  C31023848   4.657   4.645   3.076 -0.0980 -0.4868  0.0430
  173DOPC  H10X23849   4.575   4.675   3.143 -0.2830  0.4766 -0.5948
  173DOPC  C31123850   4.722   4.519   3.127 -0.3227 -0.1523 -0.0633
  173DOPC  H11X23851   4.699   4.509   3.235  3.0742 -0.4285  0.7332
  173DOPC  H11Y23852   4.832   4.534   3.128 -0.3571  0.1699  1.1856
  173DOPC  C31223853   4.679   4.392   3.046  0.2164 -0.3567 -0.6436
  173DOPC  H12X23854   4.721   4.410   2.944  2.2137 -0.0644  0.1888
  173DOPC  H12Y23855   4.568   4.383   3.048  0.2990 -1.2691  0.7415
  173DOPC  C31323856   4.728   4.268   3.119 -0.5772 -0.4817  0.0525
  173DOPC  H13X23857   4.713   4.184   3.047 -1.0462 -1.4865  1.2895
  173DOPC  H13Y23858   4.834   4.280   3.151 -0.8042  0.2746  0.5426
  173DOPC  C31423859   4.659   4.234   3.255 -0.4909 -0.3331  0.2499
  173DOPC  H14X23860   4.680   4.320   3.323  0.9086 -1.1733  0.9176
  173DOPC  H14Y23861   4.552   4.224   3.228 -1.0055  0.3242  1.9150
  173DOPC  C31523862   4.700   4.101   3.321  1.0750 -0.8526  0.1667
  173DOPC  H15X23863   4.811   4.097   3.326  1.1736 -1.4265 -1.7570
  173DOPC  H15Y23864   4.667   4.013   3.261 -0.3645 -0.1519 -0.1033
  173DOPC  C31623865   4.640   4.083   3.455 -0.0734  0.2696 -0.3965
  173DOPC  H16X23866   4.683   4.167   3.514  0.2095  1.0180 -1.6487
  173DOPC  H16Y23867   4.530   4.100   3.447  0.1039  0.9891 -1.4211
  173DOPC  C31723868   4.661   3.945   3.507  0.1109 -0.3013  0.4590
  173DOPC  H17X23869   4.606   3.883   3.433  0.5236  0.3250 -0.3876
  173DOPC  H17Y23870   4.767   3.916   3.494  0.5473  1.2552  0.3561
  173DOPC  C31823871   4.623   3.921   3.661 -0.8076  0.0056  0.5080
  173DOPC  H18X23872   4.530   3.963   3.705  0.9687  2.9953  1.7782
  173DOPC  H18Y23873   4.644   3.816   3.689 -2.0814 -0.4747 -0.2554
  173DOPC  H18Z23874   4.692   3.980   3.724 -1.1526  0.2490  0.6638
  174DOPC     N23875   5.015   6.890   1.138  0.3677  0.3870  0.2442
  174DOPC   C1223876   4.980   6.892   1.284  0.4622  0.3380  0.3757
  174DOPC  H12A23877   5.039   6.820   1.338  0.4087 -0.6579 -0.8537
  174DOPC  H12B23878   4.876   6.867   1.292  0.7940 -0.9808  0.7982
  174DOPC   C1323879   5.159   6.908   1.110 -0.0313 -0.6345 -0.6922
  174DOPC  H13A23880   5.186   6.903   1.006 -0.6205 -0.3172 -0.8594
  174DOPC  H13B23881   5.185   7.008   1.142 -0.4702 -1.2410  1.7816
  174DOPC  H13C23882   5.220   6.834   1.160 -1.1154 -0.2148  1.3918
  174DOPC   C1423883   4.939   6.992   1.060  0.2823 -0.0211  0.3493
  174DOPC  H14A23884   4.955   7.098   1.075  0.7492  0.0863 -0.8040
  174DOPC  H14B23885   4.946   6.964   0.956  0.1376 -0.1155  0.3645
  174DOPC  H14C23886   4.837   6.971   1.088  0.1573  0.4547  0.2671
  174DOPC   C1523887   4.977   6.757   1.076  0.7371 -0.8257 -0.1622
  174DOPC  H15A23888   5.018   6.670   1.124 -2.3631 -1.6586  1.1840
  174DOPC  H15B23889   5.018   6.746   0.976  0.0029  2.4639 -0.9485
  174DOPC  H15C23890   4.870   6.745   1.077  0.3944  1.0638  3.4277
  174DOPC   C1123891   4.998   7.016   1.364 -0.0731 -0.5610 -0.0307
  174DOPC  H11A23892   4.940   7.098   1.316 -0.5386 -0.2271  1.0832
  174DOPC  H11B23893   4.949   6.989   1.460 -1.6823 -1.8164 -1.1393
  174DOPC     P23894   5.241   7.002   1.477 -0.1029  0.0923  0.1974
  174DOPC   O1323895   5.380   7.052   1.459  0.2452 -0.1382  0.4300
  174DOPC   O1423896   5.224   6.855   1.498 -0.0515 -0.1826 -0.0439
  174DOPC   O1223897   5.138   7.052   1.366 -0.0871  0.7307 -0.7530
  174DOPC   O1123898   5.189   7.056   1.609 -0.0836 -0.5697 -0.2036
  174DOPC    C123899   5.140   7.194   1.607  0.2807 -0.4370 -0.4465
  174DOPC    HA23900   5.038   7.212   1.569  0.6215  1.5492 -0.4862
  174DOPC    HB23901   5.212   7.262   1.556  0.5599 -0.1064  0.3666
  174DOPC    C223902   5.126   7.259   1.750  0.1789 -0.8724 -0.6440
  174DOPC    HS23903   5.225   7.304   1.773 -0.4883  0.8360 -0.9747
  174DOPC   O2123904   5.097   7.165   1.857  0.4282  0.1645 -0.0448
  174DOPC   C2123905   5.141   7.187   1.982  0.1756  0.3729  1.0242
  174DOPC   O2223906   5.208   7.284   2.015  0.6733 -0.4558 -0.2627
  174DOPC   C2223907   5.081   7.086   2.077 -0.1240  0.4787  0.3044
  174DOPC   H2R23908   5.164   7.020   2.112  0.1697  0.0319 -1.1458
  174DOPC   H2S23909   5.009   7.013   2.034  0.4663 -0.2103  0.4657
  174DOPC    C323910   5.026   7.380   1.756  0.4498 -0.3762  0.0724
  174DOPC    HX23911   4.932   7.330   1.724  0.3014  0.6101 -1.1165
  174DOPC    HY23912   5.062   7.447   1.675  1.2593 -0.6160  0.2252
  174DOPC   O3123913   5.003   7.447   1.888 -0.4489 -0.3907  0.7716
  174DOPC   C3123914   5.090   7.545   1.897  0.2173 -0.6080 -0.2952
  174DOPC   O3223915   5.184   7.575   1.821  0.4334 -0.2821  0.3085
  174DOPC   C3223916   5.058   7.610   2.031  0.8505 -0.3251  0.6148
  174DOPC   H2X23917   4.956   7.654   2.023  1.3264  0.6179 -0.7204
  174DOPC   H2Y23918   5.062   7.543   2.119  1.4469 -2.8614 -1.2422
  174DOPC   C2323919   5.027   7.150   2.212 -0.8305 -0.0558 -0.1629
  174DOPC   H3R23920   5.116   7.201   2.255 -1.6072  1.6203 -0.4568
  174DOPC   H3S23921   5.001   7.066   2.279 -1.4081 -2.4760 -3.2149
  174DOPC   C2423922   4.906   7.238   2.201  0.8455  0.1622  0.6309
  174DOPC   H4R23923   4.820   7.168   2.193  1.5272 -0.6491  0.1862
  174DOPC   H4S23924   4.916   7.292   2.105  0.4882  0.4727  0.7668
  174DOPC   C2523925   4.878   7.337   2.307 -0.2980  0.2319 -0.4641
  174DOPC   H5R23926   4.802   7.412   2.275 -0.9798 -0.3379 -0.1967
  174DOPC   H5S23927   4.972   7.394   2.325 -1.5107  2.0946  0.3654
  174DOPC   C2623928   4.830   7.274   2.441  0.2824  1.0110 -0.0390
  174DOPC   H6R23929   4.855   7.340   2.527  1.0012 -0.5029  0.9684
  174DOPC   H6S23930   4.892   7.185   2.467 -1.5388 -0.5436 -0.7969
  174DOPC   C2723931   4.676   7.262   2.440 -0.2420 -0.4862 -0.0697
  174DOPC   H7R23932   4.650   7.181   2.368 -1.5892 -0.3725  0.2614
  174DOPC   H7S23933   4.630   7.354   2.399  2.1711  0.6270 -0.4250
  174DOPC   C2823934   4.608   7.226   2.569 -0.4123  0.4742 -0.2752
  174DOPC   H8R23935   4.650   7.126   2.591  0.4252  0.4151 -1.9689
  174DOPC   H8S23936   4.500   7.204   2.556 -0.7853  0.6799  1.9603
  174DOPC   C2923937   4.625   7.330   2.678 -0.4479  1.1596 -0.3866
  174DOPC   H9R23938   4.679   7.421   2.650  1.3264 -0.0068 -0.9405
  174DOPC  C21023939   4.626   7.304   2.808 -0.0084 -0.0253 -0.3091
  174DOPC  H10R23940   4.639   7.390   2.876  1.0572  1.9032 -2.8330
  174DOPC  C21123941   4.610   7.168   2.874  0.1381  0.1492  0.9894
  174DOPC  H11R23942   4.715   7.132   2.885  0.6003  1.4964  1.1671
  174DOPC  H11S23943   4.550   7.100   2.811 -0.8903  1.0082  1.0185
  174DOPC  C21223944   4.536   7.169   3.003 -0.3371 -0.1756  0.2288
  174DOPC  H12R23945   4.555   7.269   3.049 -0.0983  0.1180 -0.4871
  174DOPC  H12S23946   4.582   7.092   3.068  0.2236 -0.5123 -0.5472
  174DOPC  C21323947   4.388   7.145   2.996 -0.2190 -0.4793 -0.0380
  174DOPC  H13R23948   4.377   7.044   2.951 -1.1313 -0.3981 -0.0221
  174DOPC  H13S23949   4.327   7.215   2.935 -0.7267 -0.3257  0.6329
  174DOPC  C21423950   4.335   7.153   3.132  0.3904 -0.5418 -0.2689
  174DOPC  H14R23951   4.326   7.258   3.167 -2.4089 -0.4861 -0.9096
  174DOPC  H14S23952   4.416   7.115   3.198  0.4421  2.0260  1.2946
  174DOPC  C21523953   4.207   7.075   3.167 -0.7528  0.7822  0.2461
  174DOPC  H15R23954   4.212   6.978   3.113 -1.5792 -0.9519  3.0791
  174DOPC  H15S23955   4.113   7.126   3.138 -1.3502 -0.5714 -0.2930
  174DOPC  C21623956   4.190   7.043   3.315  0.3265 -0.1044 -0.6240
  174DOPC  H16R23957   4.269   6.975   3.354 -0.2847 -0.5757 -0.1866
  174DOPC  H16S23958   4.096   6.985   3.329 -0.0505  0.9811  1.7389
  174DOPC  C21723959   4.196   7.161   3.419 -0.2276  0.0526  0.2012
  174DOPC  H17R23960   4.114   7.232   3.396 -1.2388 -0.6197  1.6282
  174DOPC  H17S23961   4.295   7.210   3.403  0.5908 -1.6676 -0.2674
  174DOPC  C21823962   4.198   7.119   3.566  0.4777 -0.5041 -0.4745
  174DOPC  H18R23963   4.249   7.196   3.629 -0.8061 -0.1546  0.1807
  174DOPC  H18S23964   4.258   7.027   3.580  0.1664 -0.7063 -0.4720
  174DOPC  H18T23965   4.100   7.108   3.616  0.1303  2.1432 -0.3890
  174DOPC   C3323966   5.150   7.729   2.065  0.0003  0.2627 -0.1189
  174DOPC   H3X23967   5.109   7.782   2.153 -0.6170 -1.3017  0.5587
  174DOPC   H3Y23968   5.155   7.798   1.978 -2.0514 -0.6097 -0.9943
  174DOPC   C3423969   5.294   7.688   2.105 -0.7066 -0.5362  0.1731
  174DOPC   H4X23970   5.329   7.609   2.035  0.1176 -1.0678  1.1615
  174DOPC   H4Y23971   5.294   7.635   2.203  0.9721  0.2867  0.6519
  174DOPC   C3523972   5.397   7.805   2.114 -0.1634  0.2681  0.1607
  174DOPC   H5X23973   5.349   7.903   2.135  0.6517  0.9584 -1.0405
  174DOPC   H5Y23974   5.434   7.814   2.010 -1.9257 -0.9456 -0.6148
  174DOPC   C3623975   5.514   7.783   2.216 -0.6100 -0.2275  0.2795
  174DOPC   H6X23976   5.491   7.774   2.324  0.0079 -2.9630  0.2796
  174DOPC   H6Y23977   5.551   7.683   2.185  1.6493  0.7573 -0.3930
  174DOPC   C3723978   5.638   7.876   2.201  0.5593  0.0874 -0.5724
  174DOPC   H7X23979   5.710   7.844   2.279 -1.6150  1.2046  2.0177
  174DOPC   H7Y23980   5.670   7.845   2.099  0.1311 -2.3992 -0.0190
  174DOPC   C3823981   5.596   8.026   2.231 -0.7568 -0.1255  0.6774
  174DOPC   H8X23982   5.534   8.031   2.322 -1.5978 -0.1809  0.1196
  174DOPC   H8Y23983   5.529   8.063   2.151  1.5637  3.3607  0.1190
  174DOPC   C3923984   5.721   8.117   2.215  0.1601  0.3528 -0.0150
  174DOPC   H9X23985   5.754   8.125   2.110  2.8767  1.7403  0.8468
  174DOPC  C31023986   5.765   8.196   2.315 -0.0259  0.4811  0.6632
  174DOPC  H10X23987   5.849   8.266   2.306  0.5546 -0.1472  1.0285
  174DOPC  C31123988   5.714   8.206   2.456  0.1327  0.2516  0.4349
  174DOPC  H11X23989   5.654   8.114   2.473  0.3821 -0.4159 -1.9423
  174DOPC  H11Y23990   5.643   8.290   2.441 -1.5298 -1.1405  0.1397
  174DOPC  C31223991   5.814   8.249   2.563  0.7876  0.5569  0.1733
  174DOPC  H12X23992   5.874   8.333   2.521  0.4481  1.7018  1.8723
  174DOPC  H12Y23993   5.881   8.164   2.586  1.2679  0.1620 -2.3598
  174DOPC  C31323994   5.745   8.299   2.695 -0.3126 -0.3335  0.2028
  174DOPC  H13X23995   5.703   8.401   2.683 -1.2878 -0.6478  0.8451
  174DOPC  H13Y23996   5.662   8.229   2.716 -0.4304 -0.1383  0.3956
  174DOPC  C31423997   5.843   8.282   2.810 -0.7512 -0.1600  0.3411
  174DOPC  H14X23998   5.831   8.174   2.833 -0.2507 -0.4834 -0.8275
  174DOPC  H14Y23999   5.945   8.312   2.778 -0.1009 -1.6247  0.9568
  174DOPC  C31524000   5.795   8.366   2.926  0.7183 -0.3815 -0.1292
  174DOPC  H15X24001   5.801   8.474   2.899 -1.9342  0.0344  0.6997
  174DOPC  H15Y24002   5.858   8.353   3.016  1.4843  1.3754 -0.3624
  174DOPC  C31624003   5.649   8.348   2.965 -0.0863  0.1878 -1.1570
  174DOPC  H16X24004   5.590   8.388   2.880  0.5578  0.5844 -1.4255
  174DOPC  H16Y24005   5.629   8.238   2.972  2.5311 -0.2343  2.8940
  174DOPC  C31724006   5.602   8.420   3.091 -0.1977 -0.0587 -0.5029
  174DOPC  H17X24007   5.642   8.369   3.182  0.2711  0.2038 -0.5607
  174DOPC  H17Y24008   5.645   8.522   3.094  0.8274 -0.3871 -2.4837
  174DOPC  C31824009   5.446   8.441   3.099 -0.0582 -0.4689 -0.0764
  174DOPC  H18X24010   5.408   8.504   3.016  1.5344 -0.5995 -0.9475
  174DOPC  H18Y24011   5.384   8.349   3.104 -0.1251 -0.3866  0.6602
  174DOPC  H18Z24012   5.417   8.495   3.192 -0.1386  1.3311 -1.1016
  175DOPC     N24013   8.117   1.733   1.407  0.0427 -0.5925 -0.0310
  175DOPC   C1224014   8.166   1.643   1.519  0.9448 -0.1832 -0.3160
  175DOPC  H12A24015   8.252   1.684   1.570  0.3531  0.7157 -0.0223
  175DOPC  H12B24016   8.200   1.551   1.474  4.1190  1.2226 -1.0312
  175DOPC   C1324017   8.068   1.868   1.452  0.3205 -0.2392  0.2910
  175DOPC  H13A24018   8.003   1.905   1.374  1.9765  1.7456 -0.2602
  175DOPC  H13B24019   8.013   1.873   1.544  0.7164 -0.5218  0.5473
  175DOPC  H13C24020   8.148   1.940   1.459 -1.2244  1.3703  2.1988
  175DOPC   C1424021   8.014   1.663   1.329  0.5490 -0.7055 -0.0671
  175DOPC  H14A24022   7.923   1.642   1.383  0.2563  1.0108  0.1726
  175DOPC  H14B24023   7.999   1.725   1.242 -0.7255  1.3584  1.5067
  175DOPC  H14C24024   8.054   1.568   1.298 -1.7055 -1.1755 -1.8114
  175DOPC   C1524025   8.233   1.756   1.318 -0.6305 -0.1722  0.5094
  175DOPC  H15A24026   8.258   1.666   1.264 -1.0407  0.6816 -1.1658
  175DOPC  H15B24027   8.319   1.789   1.376 -0.7918  1.6821 -0.2151
  175DOPC  H15C24028   8.208   1.831   1.244 -2.1848 -2.4871 -1.4408
  175DOPC   C1124029   8.058   1.612   1.629  0.4270  0.4893 -0.0449
  175DOPC  H11A24030   8.108   1.571   1.719 -0.0135 -1.4452 -0.6520
  175DOPC  H11B24031   8.033   1.717   1.656  0.5327  0.4508  0.2077
  175DOPC     P24032   7.960   1.386   1.577  0.0730  0.3528 -0.2530
  175DOPC   O1324033   8.087   1.351   1.516 -0.3864  0.5413  0.2923
  175DOPC   O1424034   7.832   1.340   1.517  0.5305  0.4057 -0.0970
  175DOPC   O1224035   7.942   1.543   1.594 -0.1824 -0.4641 -0.2783
  175DOPC   O1124036   7.962   1.329   1.723  0.2019 -0.5122 -0.5011
  175DOPC    C124037   7.905   1.405   1.822 -0.0139  0.0255 -0.0316
  175DOPC    HA24038   7.802   1.437   1.795 -0.4458 -2.6832 -1.9588
  175DOPC    HB24039   7.970   1.490   1.851 -0.3623 -0.6493  3.0013
  175DOPC    C224040   7.891   1.331   1.961  0.3823 -0.8017  0.7623
  175DOPC    HS24041   7.855   1.407   2.034 -0.2424 -1.2266  0.9016
  175DOPC   O2124042   8.005   1.268   2.015 -0.4757 -0.3584 -0.9514
  175DOPC   C2124043   8.112   1.344   2.040 -0.0543 -0.4863  0.1220
  175DOPC   O2224044   8.116   1.466   2.041 -0.4137 -0.0175  0.4610
  175DOPC   C2224045   8.233   1.257   2.077  0.5289 -0.6828 -0.2368
  175DOPC   H2R24046   8.328   1.306   2.046 -1.1238  2.7632 -0.3833
  175DOPC   H2S24047   8.232   1.166   2.013  0.4731  0.8376 -2.5527
  175DOPC    C324048   7.779   1.225   1.955 -0.6319  0.1082 -0.3735
  175DOPC    HX24049   7.823   1.143   1.894 -0.3297  1.1572 -1.6185
  175DOPC    HY24050   7.708   1.271   1.882 -0.9472  1.9510  1.0240
  175DOPC   O3124051   7.718   1.200   2.084  0.3390 -0.4673 -0.5292
  175DOPC   C3124052   7.755   1.086   2.137  0.3287  0.2258  0.4821
  175DOPC   O3224053   7.825   1.004   2.084 -0.1854  0.6259  0.1696
  175DOPC   C3224054   7.679   1.067   2.260 -0.9907 -0.2206  0.2507
  175DOPC   H2X24055   7.701   1.141   2.340 -1.6548 -2.4927  2.6916
  175DOPC   H2Y24056   7.569   1.073   2.245 -0.8461 -1.0434 -1.2421
  175DOPC   C2324057   8.231   1.223   2.235 -0.0470 -0.3555  0.1135
  175DOPC   H3R24058   8.221   1.316   2.295  0.0418  0.2881 -0.8531
  175DOPC   H3S24059   8.327   1.177   2.267 -0.4837 -1.7372 -0.4994
  175DOPC   C2424060   8.126   1.113   2.276 -0.2716 -0.0305  0.3334
  175DOPC   H4R24061   8.138   1.020   2.217  3.2128 -0.8785  2.1183
  175DOPC   H4S24062   8.027   1.155   2.247  1.1138  1.8588 -2.0994
  175DOPC   C2524063   8.126   1.061   2.420 -0.1050 -1.1134 -0.6434
  175DOPC   H5R24064   8.228   1.029   2.451 -0.3252 -0.0530  1.3006
  175DOPC   H5S24065   8.057   0.974   2.422 -1.8880  0.2658  0.5497
  175DOPC   C2624066   8.065   1.159   2.521 -0.3194  0.1573 -0.6681
  175DOPC   H6R24067   7.966   1.185   2.477 -0.9076 -1.3509 -0.3082
  175DOPC   H6S24068   8.117   1.257   2.528  2.0279 -1.0389 -0.3339
  175DOPC   C2724069   8.062   1.105   2.667  0.4004  0.2448 -1.1648
  175DOPC   H7R24070   8.116   1.175   2.734 -0.7608  1.7323 -1.7229
  175DOPC   H7S24071   8.131   1.018   2.669 -0.3398 -0.3502  0.8022
  175DOPC   C2824072   7.918   1.059   2.715 -0.5634 -0.1524 -0.2368
  175DOPC   H8R24073   7.893   0.973   2.649  0.3664  0.8984 -2.0282
  175DOPC   H8S24074   7.847   1.141   2.692  0.0453  0.8468  1.2653
  175DOPC   C2924075   7.937   1.028   2.861 -0.1020 -0.0991  0.1482
  175DOPC   H9R24076   7.991   1.113   2.907  1.7548 -1.5545  0.7765
  175DOPC  C21024077   7.933   0.912   2.921  0.0145 -0.1168  0.0140
  175DOPC  H10R24078   7.973   0.915   3.023  1.1337  0.1626 -0.4208
  175DOPC  C21124079   7.903   0.781   2.856 -0.6479  0.5861  0.2869
  175DOPC  H11R24080   7.980   0.704   2.876 -1.7820 -0.3651  1.1666
  175DOPC  H11S24081   7.893   0.788   2.745  0.2338  2.1261  0.2776
  175DOPC  C21224082   7.762   0.736   2.883  0.8829 -0.0966 -0.1438
  175DOPC  H12R24083   7.682   0.808   2.855  0.1808 -0.7345  0.1893
  175DOPC  H12S24084   7.757   0.716   2.992  0.9183 -1.8873 -0.4406
  175DOPC  C21324085   7.714   0.593   2.824  0.2631  0.3428 -0.2656
  175DOPC  H13R24086   7.614   0.573   2.868  0.3537 -0.1174 -0.2646
  175DOPC  H13S24087   7.774   0.512   2.872  1.1532  1.6834  0.9579
  175DOPC  C21424088   7.716   0.584   2.670  0.3121  0.1824 -0.2210
  175DOPC  H14R24089   7.811   0.629   2.635  0.8133 -1.5903 -1.2846
  175DOPC  H14S24090   7.636   0.651   2.634 -0.4184  0.8985  2.4746
  175DOPC  C21524091   7.705   0.447   2.612  0.1810 -0.4839  0.2618
  175DOPC  H15R24092   7.626   0.383   2.658 -1.3722  0.9352 -0.3254
  175DOPC  H15S24093   7.804   0.397   2.619  1.1016  1.3116  0.6019
  175DOPC  C21624094   7.667   0.478   2.460 -0.0625  0.6576  0.5404
  175DOPC  H16R24095   7.745   0.545   2.418  2.2355 -2.2059 -0.1250
  175DOPC  H16S24096   7.568   0.527   2.469  0.1814  1.3485 -0.4617
  175DOPC  C21724097   7.675   0.354   2.375  0.2790  0.0759 -0.2702
  175DOPC  H17R24098   7.597   0.282   2.408  1.3855 -0.4967  1.1958
  175DOPC  H17S24099   7.768   0.294   2.387  0.0310 -0.3821 -0.5785
  175DOPC  C21824100   7.676   0.388   2.227 -0.1043 -0.4115  0.4124
  175DOPC  H18R24101   7.597   0.463   2.207 -1.1647 -1.2772  1.2015
  175DOPC  H18S24102   7.646   0.296   2.173  2.0304 -0.9721  0.0948
  175DOPC  H18T24103   7.774   0.422   2.186 -0.9160  1.7594  0.1548
  175DOPC   C3324104   7.705   0.931   2.321  0.3236  0.2475  0.0725
  175DOPC   H3X24105   7.807   0.890   2.311 -0.2822 -1.2031 -0.4432
  175DOPC   H3Y24106   7.657   0.844   2.271 -1.7882  1.0131  0.6555
  175DOPC   C3424107   7.660   0.931   2.465  0.2802 -0.5633  0.0507
  175DOPC   H4X24108   7.719   1.009   2.518  0.5108  0.4871 -1.6742
  175DOPC   H4Y24109   7.691   0.833   2.506  0.0502 -0.6781 -0.0476
  175DOPC   C3524110   7.508   0.951   2.479 -0.5315 -0.7528  0.3052
  175DOPC   H5X24111   7.459   0.886   2.402 -2.6912  2.6989 -1.4813
  175DOPC   H5Y24112   7.466   1.052   2.461  1.8997  0.2637  0.0462
  175DOPC   C3624113   7.450   0.924   2.620 -0.0050 -0.6526 -0.0380
  175DOPC   H6X24114   7.346   0.963   2.615 -0.0202 -0.8702 -2.3936
  175DOPC   H6Y24115   7.460   0.817   2.646  1.7181 -0.5753 -0.2933
  175DOPC   C3724116   7.529   1.005   2.726 -0.1781 -0.3842 -0.2015
  175DOPC   H7X24117   7.496   0.973   2.827 -2.0956  2.2429  0.1068
  175DOPC   H7Y24118   7.634   0.971   2.712  0.5053 -0.4577  3.8678
  175DOPC   C3824119   7.507   1.156   2.724  0.2122 -0.4525 -0.1572
  175DOPC   H8X24120   7.399   1.171   2.748  0.0181  0.0793 -1.2826
  175DOPC   H8Y24121   7.537   1.187   2.621  0.5521 -0.4810 -0.0684
  175DOPC   C3924122   7.595   1.212   2.832 -0.3036  0.4726  0.2677
  175DOPC   H9X24123   7.694   1.171   2.809 -1.0241 -1.3962  0.3286
  175DOPC  C31024124   7.563   1.297   2.933  0.0397  0.2626  0.4910
  175DOPC  H10X24125   7.645   1.327   2.999  0.0222 -1.0733  1.1591
  175DOPC  C31124126   7.428   1.361   2.950 -0.5238 -0.7553 -0.0492
  175DOPC  H11X24127   7.351   1.298   3.000 -1.7079  0.2882 -0.4867
  175DOPC  H11Y24128   7.383   1.372   2.849  0.0052 -1.7830 -0.4103
  175DOPC  C31224129   7.430   1.509   3.016  0.3959 -0.1350 -0.1788
  175DOPC  H12X24130   7.324   1.543   3.021  0.6117  0.6517 -0.8107
  175DOPC  H12Y24131   7.484   1.570   2.941 -1.2982 -0.8394 -2.0562
  175DOPC  C31324132   7.484   1.528   3.164 -0.3857 -0.1501 -0.5837
  175DOPC  H13X24133   7.433   1.445   3.215  0.0291  0.0426  0.1576
  175DOPC  H13Y24134   7.590   1.505   3.187 -0.3336  0.2644 -0.3899
  175DOPC  C31424135   7.430   1.659   3.223 -0.0741 -0.2689 -0.7202
  175DOPC  H14X24136   7.466   1.741   3.158 -2.2811  0.5340 -1.0320
  175DOPC  H14Y24137   7.320   1.667   3.207 -0.0223  3.3117 -0.0352
  175DOPC  C31524138   7.466   1.674   3.373  0.4222  0.0952  0.3053
  175DOPC  H15X24139   7.417   1.767   3.409 -0.8636 -0.4556  0.0283
  175DOPC  H15Y24140   7.574   1.690   3.393  0.8443  1.9287 -2.7875
  175DOPC  C31624141   7.411   1.556   3.454 -0.3079  0.4553 -0.5373
  175DOPC  H16X24142   7.304   1.545   3.428 -0.3768  0.6121 -0.3105
  175DOPC  H16Y24143   7.464   1.460   3.434  0.9362  0.8283  0.7631
  175DOPC  C31724144   7.437   1.567   3.604 -0.5191 -0.1895 -0.2565
  175DOPC  H17X24145   7.545   1.567   3.631 -0.6179  3.6255  0.7794
  175DOPC  H17Y24146   7.393   1.661   3.644 -1.5746 -0.8073  0.0745
  175DOPC  C31824147   7.367   1.455   3.683  0.5378 -0.0924  0.1258
  175DOPC  H18X24148   7.380   1.478   3.791  0.5950 -0.4554  0.1969
  175DOPC  H18Y24149   7.260   1.451   3.653  1.3300  1.3527 -3.5264
  175DOPC  H18Z24150   7.418   1.359   3.658 -0.1691 -0.4777  0.1198
  176DOPC     N24151   5.025   2.222   1.279 -0.3417  0.0416  0.2496
  176DOPC   C1224152   5.035   2.258   1.420  0.7864 -0.1452 -0.2637
  176DOPC  H12A24153   5.026   2.365   1.432  0.6583 -0.1985  0.1213
  176DOPC  H12B24154   5.132   2.239   1.462  0.3995 -2.0355 -0.1098
  176DOPC   C1324155   5.043   2.074   1.249 -0.3525 -0.8837 -0.3830
  176DOPC  H13A24156   4.978   2.018   1.314 -0.2954 -0.5571 -0.0415
  176DOPC  H13B24157   5.002   2.052   1.151 -0.8561  0.4084 -0.4818
  176DOPC  H13C24158   5.144   2.043   1.274 -0.4462 -0.9024 -0.0373
  176DOPC   C1424159   5.123   2.297   1.194  0.1934  0.2087 -0.3073
  176DOPC  H14A24160   5.123   2.275   1.088  2.0449  2.4910 -0.8437
  176DOPC  H14B24161   5.114   2.404   1.198  2.1420  0.3831  0.5958
  176DOPC  H14C24162   5.224   2.273   1.223  0.4039  0.4718 -0.8146
  176DOPC   C1524163   4.886   2.251   1.228 -0.3040  0.4246 -0.5783
  176DOPC  H15A24164   4.871   2.217   1.127 -0.9613  0.4194 -0.4849
  176DOPC  H15B24165   4.856   2.354   1.240 -1.3761  0.0804 -0.1925
  176DOPC  H15C24166   4.821   2.186   1.285 -0.1845  0.2160 -0.6798
  176DOPC   C1124167   4.933   2.196   1.518 -0.0030 -0.1526 -0.9290
  176DOPC  H11A24168   4.949   2.237   1.620 -0.9686 -2.1535  0.0797
  176DOPC  H11B24169   4.830   2.231   1.496 -0.9050  0.0516  2.9607
  176DOPC     P24170   5.056   1.984   1.596 -0.3307  0.1085 -0.5059
  176DOPC   O1324171   5.173   2.068   1.575  0.0606 -0.6126 -0.0026
  176DOPC   O1424172   5.069   1.845   1.540 -0.0907 -0.4224  0.0049
  176DOPC   O1224173   4.940   2.050   1.517 -0.2580 -0.7447 -0.3309
  176DOPC   O1124174   5.020   1.979   1.745 -0.1942  0.1589  0.1409
  176DOPC    C124175   4.908   1.906   1.783  0.3550  0.5192 -0.5736
  176DOPC    HA24176   4.953   1.814   1.823  0.9564  1.6700  1.5238
  176DOPC    HB24177   4.832   1.875   1.708  0.3860 -0.0594 -0.3640
  176DOPC    C224178   4.831   1.971   1.900 -0.3053 -0.6354 -0.5132
  176DOPC    HS24179   4.774   2.054   1.854 -0.2686 -0.0527  0.4685
  176DOPC   O2124180   4.933   2.031   1.989 -0.3592  0.4275 -0.5705
  176DOPC   C2124181   4.917   2.159   2.024 -0.5786  0.1578  0.3154
  176DOPC   O2224182   4.821   2.230   2.005  0.0508  0.1611 -0.0152
  176DOPC   C2224183   5.045   2.218   2.083 -0.0166  0.6050  0.4956
  176DOPC   H2R24184   5.038   2.324   2.052  0.1254  0.0478 -1.5982
  176DOPC   H2S24185   5.139   2.178   2.039 -0.0385  0.2577  0.7583
  176DOPC    C324186   4.729   1.877   1.973  0.1453  0.7126  0.1028
  176DOPC    HX24187   4.795   1.810   2.033  0.2334  1.0035  0.3353
  176DOPC    HY24188   4.672   1.826   1.893 -1.9370  0.4224  1.7023
  176DOPC   O3124189   4.655   1.959   2.056 -0.1501  0.0720 -0.0665
  176DOPC   C3124190   4.560   2.039   2.009 -0.5652 -0.6282 -0.5130
  176DOPC   O3224191   4.533   2.051   1.890 -0.4368  0.0028  0.2581
  176DOPC   C3224192   4.474   2.093   2.129  0.4211 -0.9604  0.3176
  176DOPC   H2X24193   4.519   2.050   2.222  0.2725  1.0727  1.3735
  176DOPC   H2Y24194   4.491   2.202   2.136 -4.2399 -0.0367  0.1902
  176DOPC   C2324195   5.037   2.210   2.240 -0.7239 -0.2083  0.5549
  176DOPC   H3R24196   4.947   2.266   2.272 -2.7015 -1.1087 -2.9633
  176DOPC   H3S24197   5.127   2.258   2.284 -1.0337 -0.3845  1.4068
  176DOPC   C2424198   5.039   2.071   2.296  0.5847  0.1703  0.0235
  176DOPC   H4R24199   5.122   2.017   2.245  1.2541 -0.2156  1.4652
  176DOPC   H4S24200   4.937   2.033   2.275  0.0368  2.8799 -2.9941
  176DOPC   C2524201   5.062   2.066   2.453  0.2177 -0.1933 -0.4209
  176DOPC   H5R24202   4.996   2.135   2.510 -0.4032  0.4654 -1.8912
  176DOPC   H5S24203   5.168   2.094   2.475  0.8668 -1.4478 -1.7956
  176DOPC   C2624204   5.028   1.925   2.501 -0.2762  0.7530  0.1562
  176DOPC   H6R24205   5.104   1.855   2.461 -0.6265 -1.2322  2.7207
  176DOPC   H6S24206   4.931   1.892   2.457  0.8247  0.6676 -2.3917
  176DOPC   C2724207   5.031   1.899   2.650  0.2767 -0.2769  0.1338
  176DOPC   H7R24208   4.968   1.977   2.700  0.6225 -1.1835  2.0937
  176DOPC   H7S24209   5.129   1.922   2.697  0.0184  0.1922  0.4550
  176DOPC   C2824210   4.969   1.767   2.707  0.0241  0.0807  0.8469
  176DOPC   H8R24211   4.859   1.757   2.694  0.0802 -1.7857  1.4298
  176DOPC   H8S24212   4.978   1.778   2.817 -2.2995  2.9219  0.8557
  176DOPC   C2924213   5.031   1.641   2.650 -0.3140 -0.5086  0.8603
  176DOPC   H9R24214   5.018   1.647   2.541 -0.7559  0.6486  0.9630
  176DOPC  C21024215   5.105   1.541   2.704 -0.4202 -0.3116  0.4484
  176DOPC  H10R24216   5.148   1.464   2.637  0.1158 -0.1389  0.5867
  176DOPC  C21124217   5.150   1.542   2.853 -0.1855 -0.2060 -0.0967
  176DOPC  H11R24218   5.179   1.642   2.891  1.5124 -0.7496  0.1421
  176DOPC  H11S24219   5.247   1.488   2.861  0.0063  0.3266  1.4378
  176DOPC  C21224220   5.054   1.478   2.950  0.4353 -0.0949  0.1143
  176DOPC  H12R24221   5.077   1.369   2.948  0.2850 -0.1242 -0.0752
  176DOPC  H12S24222   4.951   1.496   2.910  0.0337 -1.1346  0.6328
  176DOPC  C21324223   5.056   1.531   3.091 -0.1332 -0.3974 -0.3666
  176DOPC  H13R24224   5.031   1.637   3.069  2.2527 -0.3057 -3.1815
  176DOPC  H13S24225   5.158   1.533   3.137 -0.2143 -1.4982 -0.1018
  176DOPC  C21424226   4.953   1.462   3.186  0.0886 -0.5724 -0.2081
  176DOPC  H14R24227   4.987   1.358   3.205  0.7325 -0.3785 -0.2959
  176DOPC  H14S24228   4.853   1.438   3.143 -0.3341 -1.2755  1.0845
  176DOPC  C21524229   4.940   1.536   3.323 -0.1366  0.5938  0.3896
  176DOPC  H15R24230   4.889   1.634   3.314  0.3975  0.9678  1.3295
  176DOPC  H15S24231   5.043   1.528   3.365  1.2645 -2.7452 -3.0330
  176DOPC  C21624232   4.840   1.447   3.405  0.0365  0.1812  0.1536
  176DOPC  H16R24233   4.871   1.461   3.511 -2.2278  0.1783  0.8695
  176DOPC  H16S24234   4.854   1.340   3.376  0.3051  0.3571 -0.3782
  176DOPC  C21724235   4.698   1.486   3.385 -0.9143 -0.0128 -0.3410
  176DOPC  H17R24236   4.665   1.500   3.280 -1.7859  0.6016 -0.0046
  176DOPC  H17S24237   4.685   1.586   3.434  0.5601 -0.0982  0.2631
  176DOPC  C21824238   4.590   1.410   3.468  0.4485 -0.3460  0.0085
  176DOPC  H18R24239   4.490   1.452   3.441 -0.3950 -1.8014  0.7258
  176DOPC  H18S24240   4.612   1.433   3.574  0.2108 -0.6670  0.1317
  176DOPC  H18T24241   4.601   1.299   3.468  1.3250 -0.2902  1.6672
  176DOPC   C3324242   4.326   2.058   2.120  0.3388 -0.2890 -0.5580
  176DOPC   H3X24243   4.317   1.948   2.102  1.2244 -0.3326 -0.7896
  176DOPC   H3Y24244   4.287   2.121   2.038  1.2414 -0.1774 -0.9200
  176DOPC   C3424245   4.249   2.093   2.252 -0.3353 -0.4042 -0.6295
  176DOPC   H4X24246   4.262   2.201   2.276 -0.7541 -0.8971  2.1667
  176DOPC   H4Y24247   4.292   2.039   2.339 -0.9431  0.5107  0.2656
  176DOPC   C3524248   4.107   2.045   2.249  0.4035 -0.0637 -0.0583
  176DOPC   H5X24249   4.108   1.934   2.237 -2.0007  0.0667 -2.2861
  176DOPC   H5Y24250   4.048   2.081   2.163 -0.3959  1.9475  1.2731
  176DOPC   C3624251   4.037   2.092   2.379 -0.0774  0.3683  0.0870
  176DOPC   H6X24252   4.089   2.058   2.471 -1.5949 -2.5116  0.0239
  176DOPC   H6Y24253   4.042   2.202   2.375 -0.6497  0.3605 -2.8600
  176DOPC   C3724254   3.897   2.020   2.387 -0.9685  0.5499 -0.0321
  176DOPC   H7X24255   3.824   2.075   2.324 -0.9141  0.9491  0.2526
  176DOPC   H7Y24256   3.898   1.925   2.330 -0.2456  0.3830  0.2484
  176DOPC   C3824257   3.848   2.009   2.531 -0.3190  0.4860 -0.0765
  176DOPC   H8X24258   3.918   1.954   2.597 -0.8998 -0.2216 -0.0300
  176DOPC   H8Y24259   3.759   1.941   2.529 -0.9574  1.1612  2.5970
  176DOPC   C3924260   3.801   2.145   2.580  0.2368 -0.1735 -0.2471
  176DOPC   H9X24261   3.709   2.180   2.531  0.9711  0.0505 -1.5168
  176DOPC  C31024262   3.863   2.206   2.674  0.3274  0.1398 -0.0241
  176DOPC  H10X24263   3.824   2.301   2.713 -0.6238  0.4010 -1.5285
  176DOPC  C31124264   3.985   2.155   2.742  0.2327  0.5106 -0.4283
  176DOPC  H11X24265   4.070   2.213   2.699  0.7385  0.4753  0.4792
  176DOPC  H11Y24266   4.013   2.048   2.733 -0.6774  0.2432 -0.1684
  176DOPC  C31224267   4.004   2.203   2.893  0.0326  0.3191  0.8171
  176DOPC  H12X24268   4.012   2.314   2.887 -0.9795  0.5219  2.4052
  176DOPC  H12Y24269   4.098   2.156   2.928  0.4515 -1.7995 -2.7181
  176DOPC  C31324270   3.900   2.162   2.995  0.4367 -0.3851 -0.6760
  176DOPC  H13X24271   3.917   2.216   3.090 -0.0017  0.6763 -1.1894
  176DOPC  H13Y24272   3.806   2.206   2.955  0.4037  1.1004  0.9433
  176DOPC  C31424273   3.885   2.016   3.024  0.9200  0.8545  0.0515
  176DOPC  H14X24274   3.888   1.954   2.932 -0.0519  1.1450 -0.1879
  176DOPC  H14Y24275   3.962   1.983   3.096  0.3426 -3.0400 -0.9088
  176DOPC  C31524276   3.744   1.973   3.069  0.6304  0.4690  0.7867
  176DOPC  H15X24277   3.670   2.012   2.996  0.4701  0.1013  0.7460
  176DOPC  H15Y24278   3.719   2.003   3.173  0.5767  2.3523  0.2612
  176DOPC  C31624279   3.727   1.821   3.065  0.0646  0.6414  0.1837
  176DOPC  H16X24280   3.747   1.791   2.959 -0.8955  4.0291 -1.0979
  176DOPC  H16Y24281   3.806   1.786   3.134  0.9975  2.2212 -0.0265
  176DOPC  C31724282   3.590   1.780   3.113  0.6003 -0.4249  0.3563
  176DOPC  H17X24283   3.516   1.840   3.055 -1.1141 -1.3768  1.4636
  176DOPC  H17Y24284   3.573   1.672   3.091 -0.5267  0.3395 -3.2295
  176DOPC  C31824285   3.560   1.816   3.253  0.0307 -0.1488  0.3753
  176DOPC  H18X24286   3.461   1.772   3.279 -1.5352  2.9020  0.0627
  176DOPC  H18Y24287   3.642   1.761   3.304  0.3583  0.2127  0.2445
  176DOPC  H18Z24288   3.556   1.925   3.276 -0.4908 -0.1756  0.4337
  177DOPC     N24289   0.143   5.273   1.038 -0.2729 -0.0212 -0.4344
  177DOPC   C1224290   0.100   5.124   1.043 -0.0986  0.5026  0.2051
  177DOPC  H12A24291   0.046   5.107   0.951 -1.0136 -1.4005  1.0194
  177DOPC  H12B24292   0.031   5.111   1.126 -0.4798  0.5664 -0.1021
  177DOPC   C1324293   0.023   5.358   1.024  0.6302 -0.0537  0.3924
  177DOPC  H13A24294   0.031   5.466   1.031  0.1250 -0.0762  1.5213
  177DOPC  H13B24295   8.498   5.340   0.936  0.6434  0.2861  0.3115
  177DOPC  H13C24296   8.495   5.336   1.109  2.6941  2.0418  2.6358
  177DOPC   C1424297   0.236   5.292   0.931 -0.7277  0.0862  0.5646
  177DOPC  H14A24298   0.210   5.243   0.838 -2.1109 -0.7730  1.3714
  177DOPC  H14B24299   0.236   5.396   0.905 -0.5917 -0.0118  0.1649
  177DOPC  H14C24300   0.336   5.262   0.958 -0.5367  1.3278  1.2721
  177DOPC   C1524301   0.216   5.322   1.163 -0.2891  0.2678  0.6525
  177DOPC  H15A24302   0.312   5.273   1.160 -0.3464  0.1856 -0.6159
  177DOPC  H15B24303   0.175   5.276   1.251  0.2452 -2.0699 -0.2551
  177DOPC  H15C24304   0.211   5.430   1.159  1.0994  0.3200 -0.5785
  177DOPC   C1124305   0.200   5.008   1.048  0.2020 -0.7481 -0.2933
  177DOPC  H11A24306   0.144   4.913   1.036  1.1835 -1.2719 -0.9269
  177DOPC  H11B24307   0.281   4.999   0.973  1.7241 -0.8302  1.3021
  177DOPC     P24308   0.275   4.899   1.273 -0.5310  0.0043 -0.0144
  177DOPC   O1324309   0.391   4.913   1.365  0.1322 -0.6654 -0.3250
  177DOPC   O1424310   0.284   4.770   1.198  0.1918 -0.2187 -0.6571
  177DOPC   O1224311   0.276   5.015   1.167  0.8628 -0.1943 -0.3216
  177DOPC   O1124312   0.140   4.907   1.352  0.3854 -0.1191  0.4137
  177DOPC    C124313   0.084   5.034   1.383 -0.6389 -0.2593 -0.4542
  177DOPC    HA24314   0.005   5.062   1.309 -0.7636  2.6700  0.6467
  177DOPC    HB24315   0.157   5.116   1.365 -2.1932  0.7393 -2.7171
  177DOPC    C224316   0.037   5.034   1.532  0.8208 -0.0252 -0.3518
  177DOPC    HS24317   0.021   5.141   1.559  0.8290 -0.5044  1.6964
  177DOPC   O2124318   0.119   4.972   1.635 -0.1193  0.0689  0.2366
  177DOPC   C2124319   0.238   5.026   1.640  0.5572  0.4018 -0.1312
  177DOPC   O2224320   0.270   5.136   1.597 -0.2220  0.4446  0.4298
  177DOPC   C2224321   0.342   4.944   1.721 -0.0344  0.7003  0.1778
  177DOPC   H2R24322   0.439   4.987   1.690  0.0667 -0.9153 -1.9957
  177DOPC   H2S24323   0.357   4.836   1.697  2.0871  1.2238 -0.9998
  177DOPC    C324324   8.426   4.981   1.542  0.3445  0.0875  0.7638
  177DOPC    HX24325   8.432   4.876   1.507 -0.9545 -0.4052  1.9402
  177DOPC    HY24326   8.371   5.046   1.470 -1.5256 -1.5039  0.6924
  177DOPC   O3124327   8.373   4.991   1.671  1.2735  0.6279  0.1093
  177DOPC   C3124328   8.402   4.889   1.755 -0.4565 -0.2301 -1.2281
  177DOPC   O3224329   8.447   4.778   1.730 -0.6080  0.0135  0.1334
  177DOPC   C3224330   8.360   4.923   1.904  0.5478 -0.1294 -0.2154
  177DOPC   H2X24331   8.322   5.027   1.898 -0.5315 -0.3893  1.3999
  177DOPC   H2Y24332   8.278   4.850   1.922  1.2553 -0.7645  0.5808
  177DOPC   C2324333   0.309   4.945   1.871 -0.1627 -0.0003 -0.6362
  177DOPC   H3R24334   0.213   4.894   1.893 -0.2704 -0.1043 -1.3049
  177DOPC   H3S24335   0.292   5.052   1.894 -0.7915 -0.6160  2.0262
  177DOPC   C2424336   0.415   4.903   1.974  0.3224  0.3280 -0.0610
  177DOPC   H4R24337   0.501   4.972   1.965  1.2829 -0.8011  0.2678
  177DOPC   H4S24338   0.452   4.800   1.954 -1.3901 -0.3825  0.2330
  177DOPC   C2524339   0.375   4.916   2.121 -0.6893  0.2485 -0.3389
  177DOPC   H5R24340   0.281   4.856   2.127 -0.8673  0.5020 -0.5742
  177DOPC   H5S24341   0.348   5.021   2.147 -1.2715  0.0081  0.0730
  177DOPC   C2624342   0.490   4.891   2.221  0.0799 -0.6928 -0.4287
  177DOPC   H6R24343   0.458   4.935   2.318  1.4986  1.0317 -0.6766
  177DOPC   H6S24344   0.581   4.952   2.199  1.8442 -2.6911  0.8716
  177DOPC   C2724345   0.538   4.743   2.222 -0.3799 -0.0602  0.4667
  177DOPC   H7R24346   0.590   4.723   2.126  0.8886 -1.1483  1.3520
  177DOPC   H7S24347   0.448   4.678   2.225 -1.1631  1.0064  0.6836
  177DOPC   C2824348   0.630   4.724   2.351  0.2028  0.8176 -0.0833
  177DOPC   H8R24349   0.709   4.801   2.342 -0.0942  1.2603  0.9986
  177DOPC   H8S24350   0.680   4.626   2.334 -1.4418 -0.5700  2.3240
  177DOPC   C2924351   0.555   4.723   2.481  0.8376 -0.3234  0.4756
  177DOPC   H9R24352   0.497   4.815   2.496 -0.2127 -0.8843 -0.0183
  177DOPC  C21024353   0.532   4.617   2.557 -0.4850 -0.2296 -0.0855
  177DOPC  H10R24354   0.461   4.635   2.639 -1.3722  2.1852 -1.2918
  177DOPC  C21124355   0.582   4.475   2.555  0.1895 -0.1838 -0.2410
  177DOPC  H11R24356   0.609   4.457   2.448 -0.7409  2.0433 -0.9127
  177DOPC  H11S24357   0.514   4.396   2.593 -3.5308  2.5153 -0.7197
  177DOPC  C21224358   0.714   4.453   2.629 -0.2013 -0.0630  0.5294
  177DOPC  H12R24359   0.798   4.516   2.593 -0.9186 -0.2546 -1.6057
  177DOPC  H12S24360   0.736   4.347   2.603  1.4682 -0.0510  1.7269
  177DOPC  C21324361   0.701   4.460   2.788  0.0684  0.3069  0.6227
  177DOPC  H13R24362   0.610   4.406   2.822  1.6666 -1.2226  2.7621
  177DOPC  H13S24363   0.690   4.566   2.818  0.4578  0.6802 -0.5248
  177DOPC  C21424364   0.811   4.400   2.879 -0.5670 -0.2108  0.4990
  177DOPC  H14R24365   0.784   4.424   2.984 -0.5797  0.0284  0.4417
  177DOPC  H14S24366   0.906   4.453   2.857  0.5851 -2.7696 -1.2323
  177DOPC  C21524367   0.852   4.249   2.879  0.1805  0.5293  0.1177
  177DOPC  H15R24368   0.864   4.211   2.775 -1.1538  2.2358 -0.7181
  177DOPC  H15S24369   0.761   4.195   2.913  0.4915  0.0812  0.2401
  177DOPC  C21624370   0.961   4.208   2.979  0.0844  1.2096  0.8449
  177DOPC  H16R24371   0.939   4.231   3.085  3.0246 -2.4108  2.4935
  177DOPC  H16S24372   1.052   4.265   2.949  0.8964  0.9989  2.7678
  177DOPC  C21724373   0.993   4.057   2.980 -0.0284  0.0810  0.1768
  177DOPC  H17R24374   1.005   4.029   2.873 -1.6486  0.2457 -0.0764
  177DOPC  H17S24375   0.908   3.993   3.012 -0.4875 -0.1712 -1.4602
  177DOPC  C21824376   1.139   4.035   3.049 -0.3738 -0.8563  0.1364
  177DOPC  H18R24377   1.212   4.085   2.982 -2.1396  0.2114 -1.0841
  177DOPC  H18S24378   1.163   3.927   3.058 -0.1763 -0.6401  3.0444
  177DOPC  H18T24379   1.139   4.071   3.153 -0.9389 -0.2311 -0.0775
  177DOPC   C3324380   8.469   4.908   2.011  0.4483  0.0077 -0.2846
  177DOPC   H3X24381   0.021   4.965   1.972  0.6811 -0.5855 -0.6378
  177DOPC   H3Y24382   8.501   4.802   2.021  1.3992  0.4713  2.1392
  177DOPC   C3424383   8.423   4.966   2.151 -0.4605 -0.2285  0.0832
  177DOPC   H4X24384   8.410   5.076   2.150  2.8223  0.2595  0.1488
  177DOPC   H4Y24385   8.516   4.948   2.210  0.4458 -1.0646 -1.5429
  177DOPC   C3524386   8.306   4.894   2.215  0.7806  1.4753  0.4559
  177DOPC   H5X24387   8.329   4.785   2.216 -0.5174  1.1157 -2.0875
  177DOPC   H5Y24388   8.218   4.898   2.148 -1.5945 -0.8420  3.1257
  177DOPC   C3624389   8.275   4.951   2.351  0.0834 -0.1676  0.3425
  177DOPC   H6X24390   8.359   4.930   2.421  1.2292 -0.8950 -1.1901
  177DOPC   H6Y24391   8.270   5.062   2.344 -1.6554 -0.0341  2.7371
  177DOPC   C3724392   8.143   4.903   2.413 -0.5907 -0.2254 -0.1444
  177DOPC   H7X24393   8.119   4.962   2.504  0.2415 -1.0385  0.6206
  177DOPC   H7Y24394   8.064   4.923   2.337  1.0074  0.7117 -1.6635
  177DOPC   C3824395   8.139   4.753   2.455 -0.2752  0.7640 -0.3691
  177DOPC   H8X24396   8.203   4.746   2.545 -3.4213  2.6533  2.2342
  177DOPC   H8Y24397   8.182   4.698   2.369 -2.2888  0.6639 -1.3759
  177DOPC   C3924398   8.000   4.694   2.485 -0.3862  0.0134  0.1026
  177DOPC   H9X24399   7.945   4.639   2.407 -0.0265 -0.2998  0.0695
  177DOPC  C31024400   7.924   4.716   2.596 -0.1342  0.0088  0.1068
  177DOPC  H10X24401   7.824   4.674   2.612  0.4244 -0.7274  1.8972
  177DOPC  C31124402   7.959   4.814   2.702 -0.0697  0.1087  0.1359
  177DOPC  H11X24403   7.876   4.887   2.705  0.5214  1.2313 -4.1671
  177DOPC  H11Y24404   8.047   4.876   2.674 -0.7644  0.1787 -2.0792
  177DOPC  C31224405   7.994   4.755   2.847  0.2733 -0.5275  0.1853
  177DOPC  H12X24406   7.996   4.851   2.904 -0.6730 -0.1355 -0.4169
  177DOPC  H12Y24407   8.092   4.704   2.842  0.6566  0.3428 -2.3689
  177DOPC  C31324408   7.885   4.658   2.911  0.4573 -0.1304 -0.6158
  177DOPC  H13X24409   7.796   4.723   2.907 -0.0060 -0.7812 -1.0789
  177DOPC  H13Y24410   7.857   4.569   2.851 -0.4158 -0.3846  0.1439
  177DOPC  C31424411   7.909   4.608   3.061 -0.4696 -0.1554  0.1914
  177DOPC  H14X24412   8.011   4.564   3.066 -1.0142 -1.3677  3.7675
  177DOPC  H14Y24413   7.907   4.704   3.117 -2.3425  0.6275 -1.1257
  177DOPC  C31524414   7.798   4.516   3.116 -0.2042 -0.5726 -0.2909
  177DOPC  H15X24415   7.824   4.459   3.208 -0.2096 -0.4452 -0.2101
  177DOPC  H15Y24416   7.785   4.448   3.029  1.1099 -0.3322 -0.6903
  177DOPC  C31624417   7.667   4.593   3.133 -0.0609 -0.0333 -0.7522
  177DOPC  H16X24418   7.683   4.695   3.174 -0.5906  0.0508 -0.7476
  177DOPC  H16Y24419   7.619   4.597   3.033 -0.1265 -2.1484 -0.8512
  177DOPC  C31724420   7.568   4.523   3.223 -0.0296  0.2922 -0.1915
  177DOPC  H17X24421   7.558   4.416   3.194 -0.0042 -0.2086  1.5157
  177DOPC  H17Y24422   7.619   4.531   3.321 -1.7433  0.4152  0.7195
  177DOPC  C31824423   7.425   4.586   3.230 -0.0568 -0.7753 -0.1161
  177DOPC  H18X24424   7.440   4.695   3.217  1.7731 -0.6582  2.2203
  177DOPC  H18Y24425   7.362   4.541   3.150  0.1952 -0.4381 -0.5133
  177DOPC  H18Z24426   7.371   4.582   3.327  0.3895  1.0514  0.2431
  178DOPC     N24427   4.376   3.558   1.382  0.3688 -0.5667  0.0408
  178DOPC   C1224428   4.334   3.700   1.335 -0.0981 -0.9548 -0.1397
  178DOPC  H12A24429   4.398   3.710   1.248  1.2531 -2.3342  0.6521
  178DOPC  H12B24430   4.358   3.764   1.419  0.1152  0.2054 -1.0576
  178DOPC   C1324431   4.293   3.525   1.503 -0.1599  0.1005  0.3023
  178DOPC  H13A24432   4.308   3.600   1.579  1.9114  2.8799 -2.6169
  178DOPC  H13B24433   4.188   3.516   1.481  0.0544 -1.0326 -0.3529
  178DOPC  H13C24434   4.319   3.427   1.543 -0.1226 -0.0958 -0.1959
  178DOPC   C1424435   4.516   3.564   1.414 -0.1174  0.3395 -0.4722
  178DOPC  H14A24436   4.552   3.482   1.473 -0.7177  0.9271  0.7332
  178DOPC  H14B24437   4.581   3.561   1.327 -0.1872 -2.3729 -0.5184
  178DOPC  H14C24438   4.545   3.651   1.471  0.6888 -0.6917  0.7527
  178DOPC   C1524439   4.358   3.453   1.273 -0.6943  0.0882  0.5282
  178DOPC  H15A24440   4.436   3.457   1.198  0.0885 -0.7890  1.2735
  178DOPC  H15B24441   4.256   3.456   1.238 -0.1684  0.7569 -1.0552
  178DOPC  H15C24442   4.370   3.355   1.315  0.4165 -0.1922 -0.3839
  178DOPC   C1124443   4.191   3.738   1.280 -0.3882 -0.0809  0.0112
  178DOPC  H11A24444   4.122   3.780   1.357 -0.2969  0.5178 -0.2274
  178DOPC  H11B24445   4.206   3.830   1.220  2.1986  0.4316  1.2976
  178DOPC     P24446   3.995   3.571   1.236 -0.2266 -0.1827  0.3764
  178DOPC   O1324447   3.961   3.467   1.138  0.1132  0.2844 -0.2645
  178DOPC   O1424448   3.903   3.682   1.247 -0.1522  0.2471 -0.4609
  178DOPC   O1224449   4.138   3.632   1.204  0.4845 -0.3535 -0.0075
  178DOPC   O1124450   3.997   3.508   1.378  0.0375  0.0299  0.0908
  178DOPC    C124451   3.884   3.437   1.427 -0.8310  0.5928 -0.3152
  178DOPC    HA24452   3.879   3.338   1.375  0.3691  0.1929  0.2812
  178DOPC    HB24453   3.793   3.494   1.400  1.7186  4.8565 -0.7212
  178DOPC    C224454   3.892   3.419   1.582  0.4101 -0.1714 -0.7309
  178DOPC    HS24455   3.796   3.384   1.624  0.2161  1.3188  0.1343
  178DOPC   O2124456   3.936   3.537   1.657  0.1468  0.3959  0.1148
  178DOPC   C2124457   3.844   3.634   1.660 -0.3104  0.7236  0.0328
  178DOPC   O2224458   3.731   3.628   1.616  0.5112  0.0185 -0.7493
  178DOPC   C2224459   3.909   3.754   1.722  0.1961 -0.0392 -0.6481
  178DOPC   H2R24460   3.839   3.839   1.706 -0.2489 -0.0084  1.2458
  178DOPC   H2S24461   4.000   3.774   1.662 -0.4587  1.3548 -1.2159
  178DOPC    C324462   3.999   3.313   1.618 -0.9519 -0.4526  0.1645
  178DOPC    HX24463   4.095   3.355   1.582 -0.0877  0.4762  3.2919
  178DOPC    HY24464   3.979   3.215   1.569  2.1726 -0.6623 -0.8670
  178DOPC   O3124465   4.006   3.282   1.758 -0.3851  1.0124 -0.7335
  178DOPC   C3124466   4.089   3.344   1.846  0.4216 -0.3151  0.7109
  178DOPC   O3224467   4.181   3.421   1.822 -0.0373 -0.0606  0.2364
  178DOPC   C3224468   4.046   3.294   1.982  0.4256  0.0069 -0.4952
  178DOPC   H2X24469   3.935   3.297   1.986  0.4600  0.8671  0.1390
  178DOPC   H2Y24470   4.075   3.189   2.002 -0.4344  0.3683  3.3945
  178DOPC   C2324471   3.949   3.728   1.873  0.0088  0.7238 -0.1606
  178DOPC   H3R24472   3.998   3.824   1.900  1.8155  0.0354 -0.8286
  178DOPC   H3S24473   4.015   3.640   1.889  1.2075  1.3236 -1.5534
  178DOPC   C2424474   3.829   3.715   1.962  0.5230  0.4443  1.1061
  178DOPC   H4R24475   3.784   3.615   1.946  0.4279  0.5465  0.7435
  178DOPC   H4S24476   3.748   3.789   1.945 -0.5546 -1.4130 -2.9318
  178DOPC   C2524477   3.859   3.700   2.114 -0.6434  0.1823 -0.4284
  178DOPC   H5R24478   3.949   3.634   2.119  0.4121  1.3473 -2.6177
  178DOPC   H5S24479   3.764   3.656   2.150 -0.1269 -0.9100 -0.3632
  178DOPC   C2624480   3.899   3.831   2.194  0.1697  0.4975 -0.3402
  178DOPC   H6R24481   3.860   3.915   2.132  4.1009  3.6841  1.1029
  178DOPC   H6S24482   4.009   3.834   2.186  0.4029 -3.3419 -0.3754
  178DOPC   C2724483   3.837   3.829   2.331 -0.4998 -0.2179  0.5841
  178DOPC   H7R24484   3.847   3.724   2.365 -2.0557 -0.6832 -0.3177
  178DOPC   H7S24485   3.727   3.842   2.323 -0.5052 -1.3246 -2.2946
  178DOPC   C2824486   3.905   3.921   2.433  0.7170  0.0728 -0.6010
  178DOPC   H8R24487   3.910   4.023   2.390  2.3850  0.8291  1.2270
  178DOPC   H8S24488   4.010   3.887   2.444  0.7661  0.9095  2.2276
  178DOPC   C2924489   3.843   3.921   2.571 -0.7344 -0.4548 -0.4002
  178DOPC   H9R24490   3.840   3.824   2.625  2.1224 -1.4117 -1.7465
  178DOPC  C21024491   3.831   4.032   2.646  0.1942  1.5173  0.3901
  178DOPC  H10R24492   3.785   4.033   2.746  0.4641 -0.0723  0.5587
  178DOPC  C21124493   3.870   4.177   2.603  0.1250  0.3255  0.2633
  178DOPC  H11R24494   3.779   4.240   2.595  1.0126  1.8235  1.3508
  178DOPC  H11S24495   3.907   4.177   2.499  0.7614  0.3190  0.4859
  178DOPC  C21224496   3.971   4.233   2.708 -0.6168  0.1519  0.1492
  178DOPC  H12R24497   3.987   4.341   2.684  1.4645 -0.2744 -0.5627
  178DOPC  H12S24498   4.067   4.179   2.700 -0.9542 -0.2171 -1.8546
  178DOPC  C21324499   3.915   4.235   2.851  0.6176  0.0197 -0.8754
  178DOPC  H13R24500   3.928   4.130   2.886  1.4499  0.2133 -0.5820
  178DOPC  H13S24501   3.813   4.278   2.854  0.2552 -0.8020 -0.9517
  178DOPC  C21424502   4.002   4.313   2.955  0.3804  0.1080 -0.2844
  178DOPC  H14R24503   3.963   4.417   2.946  2.3049  0.7860 -1.4260
  178DOPC  H14S24504   4.108   4.313   2.923  0.6855  4.5040  0.1468
  178DOPC  C21524505   4.002   4.257   3.099  0.3825 -0.8353 -0.5270
  178DOPC  H15R24506   4.055   4.159   3.102 -1.3398 -1.7934  0.0173
  178DOPC  H15S24507   3.903   4.235   3.144  0.7667 -1.3812  0.0861
  178DOPC  C21624508   4.074   4.350   3.200 -0.1241 -1.0606 -0.5443
  178DOPC  H16R24509   4.060   4.305   3.301  4.2728 -0.0390  0.7192
  178DOPC  H16S24510   4.026   4.449   3.186 -0.0776 -0.6622  1.6987
  178DOPC  C21724511   4.226   4.352   3.177 -0.1005 -0.8248 -0.1028
  178DOPC  H17R24512   4.257   4.433   3.108 -0.8935 -0.5669 -0.1602
  178DOPC  H17S24513   4.249   4.252   3.133  0.9368 -0.5952 -0.0978
  178DOPC  C21824514   4.310   4.378   3.307  0.8835  0.2429 -0.0839
  178DOPC  H18R24515   4.313   4.297   3.383  0.1172 -1.2056 -1.5089
  178DOPC  H18S24516   4.273   4.466   3.364 -0.6129 -0.9624  0.8862
  178DOPC  H18T24517   4.415   4.391   3.275  0.9323  1.9762  0.6873
  178DOPC   C3324518   4.095   3.389   2.088  0.7304 -0.2680  0.4657
  178DOPC   H3X24519   4.071   3.494   2.062 -3.1015 -1.0802  0.0644
  178DOPC   H3Y24520   4.204   3.380   2.105  0.9074 -0.3218 -0.6474
  178DOPC   C3424521   4.015   3.377   2.217 -0.2614  0.5140 -0.0774
  178DOPC   H4X24522   4.002   3.279   2.266 -2.5144  1.5606  1.6081
  178DOPC   H4Y24523   3.912   3.413   2.194 -0.4468 -0.0556 -0.1364
  178DOPC   C3524524   4.076   3.465   2.335 -0.1826  0.4273  0.4740
  178DOPC   H5X24525   4.082   3.570   2.297  1.0033  0.1005 -0.2842
  178DOPC   H5Y24526   4.175   3.427   2.366 -0.7908 -0.6332  1.1605
  178DOPC   C3624527   3.986   3.473   2.463 -0.4427  0.5294  0.6202
  178DOPC   H6X24528   3.879   3.499   2.448 -0.7890 -1.3648 -0.4241
  178DOPC   H6Y24529   3.988   3.366   2.493  3.0931 -0.0747 -1.1466
  178DOPC   C3724530   4.048   3.560   2.574  0.1742  0.1016 -0.1774
  178DOPC   H7X24531   4.147   3.521   2.605  0.3764  0.3735 -0.4596
  178DOPC   H7Y24532   4.071   3.661   2.533  1.2651  1.2119  2.8781
  178DOPC   C3824533   3.958   3.560   2.692 -0.0372 -0.7842 -0.1343
  178DOPC   H8X24534   3.862   3.596   2.650 -0.3827 -1.8191 -0.2513
  178DOPC   H8Y24535   3.999   3.636   2.762 -0.4725 -1.1432  0.5095
  178DOPC   C3924536   3.931   3.430   2.758  0.9813  0.5739 -0.0565
  178DOPC   H9X24537   3.870   3.361   2.698 -0.9327  2.1730 -0.0614
  178DOPC  C31024538   3.962   3.394   2.878  0.1317 -0.0925 -0.1505
  178DOPC  H10X24539   3.915   3.300   2.912 -2.0458  0.4785 -1.3905
  178DOPC  C31124540   4.023   3.484   2.982  0.5505  0.0722  0.7266
  178DOPC  H11X24541   3.959   3.473   3.072 -0.2210  0.5628  0.2493
  178DOPC  H11Y24542   4.023   3.595   2.969 -1.6273  0.2391  1.7962
  178DOPC  C31224543   4.165   3.440   3.015  0.0369 -1.0788  0.5680
  178DOPC  H12X24544   4.180   3.335   3.048  1.5558 -1.2632 -0.5895
  178DOPC  H12Y24545   4.193   3.503   3.102 -1.2355 -2.2879  1.8998
  178DOPC  C31324546   4.264   3.467   2.903  0.5856 -1.0248 -0.4524
  178DOPC  H13X24547   4.226   3.413   2.813 -0.2535 -0.0672 -0.6815
  178DOPC  H13Y24548   4.254   3.575   2.881  1.1687 -0.4187  1.9813
  178DOPC  C31424549   4.402   3.422   2.927  0.6038 -0.6463 -0.1891
  178DOPC  H14X24550   4.438   3.464   3.023 -2.8940 -0.1701  1.0866
  178DOPC  H14Y24551   4.400   3.311   2.936  0.6497 -0.7755 -1.5488
  178DOPC  C31524552   4.504   3.469   2.817 -0.0347 -1.1645 -0.1099
  178DOPC  H15X24553   4.491   3.578   2.797 -2.4954 -1.7915 -2.5234
  178DOPC  H15Y24554   4.478   3.417   2.722 -0.8052  1.9736 -1.7717
  178DOPC  C31624555   4.643   3.424   2.865 -0.2124 -0.3355 -0.0537
  178DOPC  H16X24556   4.669   3.477   2.959  0.4516  1.6931 -1.3189
  178DOPC  H16Y24557   4.652   3.315   2.883 -0.4139 -0.2239  0.7286
  178DOPC  C31724558   4.764   3.475   2.780  1.1034 -0.4791  0.5012
  178DOPC  H17X24559   4.768   3.586   2.783  0.0468 -0.3915 -0.3889
  178DOPC  H17Y24560   4.857   3.440   2.830  1.1867 -1.6160 -0.4073
  178DOPC  C31824561   4.765   3.422   2.636 -0.3576 -0.0322 -0.9559
  178DOPC  H18X24562   4.771   3.311   2.634 -2.7080 -0.2058 -1.9387
  178DOPC  H18Y24563   4.668   3.440   2.586 -1.7805 -0.3271  1.5163
  178DOPC  H18Z24564   4.849   3.465   2.577 -0.7454  0.3737 -1.2189
  179DOPC     N24565   0.752   0.329   1.384  0.3061 -0.8757 -0.4298
  179DOPC   C1224566   0.818   0.426   1.292  0.3585 -0.2159 -0.2206
  179DOPC  H12A24567   0.748   0.509   1.289  0.0683 -0.4445  0.0137
  179DOPC  H12B24568   0.818   0.402   1.187  3.1339  1.3459 -0.6607
  179DOPC   C1324569   0.833   0.206   1.401 -0.5160  0.1152 -0.2968
  179DOPC  H13A24570   0.939   0.219   1.414 -0.4798  0.2129 -0.6869
  179DOPC  H13B24571   0.792   0.144   1.480 -1.6431 -0.7034 -1.4868
  179DOPC  H13C24572   0.836   0.135   1.320  0.4707 -0.6725  0.3932
  179DOPC   C1424573   0.624   0.300   1.328  0.0410  0.1486  0.1178
  179DOPC  H14A24574   0.554   0.382   1.329  0.1381  0.3878 -2.8344
  179DOPC  H14B24575   0.609   0.263   1.227 -0.3558 -1.1025  0.6075
  179DOPC  H14C24576   0.584   0.220   1.389  0.6007 -0.2196  0.0148
  179DOPC   C1524577   0.751   0.386   1.520  1.1456  0.7321 -0.1486
  179DOPC  H15A24578   0.855   0.405   1.543  1.1562  1.0191 -0.4235
  179DOPC  H15B24579   0.712   0.321   1.597  1.5867  0.8789  0.2039
  179DOPC  H15C24580   0.708   0.484   1.530 -1.5310 -0.5972  3.4734
  179DOPC   C1124581   0.966   0.481   1.329  1.0909 -0.2610 -0.1247
  179DOPC  H11A24582   1.008   0.559   1.262  0.8403 -0.7366 -0.8516
  179DOPC  H11B24583   0.947   0.532   1.425 -0.5855  2.0357 -1.5878
  179DOPC     P24584   1.185   0.388   1.443  0.0925  0.1358  0.0550
  179DOPC   O1324585   1.272   0.495   1.395 -0.3263  0.2221  0.0824
  179DOPC   O1424586   1.255   0.258   1.459 -0.1370 -0.3400 -0.2866
  179DOPC   O1224587   1.059   0.373   1.347  0.0494  1.1352  0.2823
  179DOPC   O1124588   1.109   0.422   1.584 -0.1854 -0.2327  0.4708
  179DOPC    C124589   1.119   0.563   1.632 -0.2782 -0.3008 -0.1061
  179DOPC    HA24590   1.051   0.576   1.719  1.6007 -1.4119  1.5889
  179DOPC    HB24591   1.089   0.632   1.550 -1.2032 -1.7648 -1.0563
  179DOPC    C224592   1.254   0.601   1.702 -0.4705  1.2184  0.1351
  179DOPC    HS24593   1.327   0.602   1.618 -0.7021 -2.8005 -0.3107
  179DOPC   O2124594   1.269   0.483   1.783 -0.1161 -0.4524 -0.4505
  179DOPC   C2124595   1.390   0.442   1.813  0.4997  0.0848 -0.6014
  179DOPC   O2224596   1.492   0.478   1.758 -0.2738 -0.4877 -0.0053
  179DOPC   C2224597   1.393   0.354   1.942 -0.6865  0.3284  0.5220
  179DOPC   H2R24598   1.330   0.263   1.933 -0.1888 -0.2732  2.5363
  179DOPC   H2S24599   1.377   0.419   2.031  0.5486  1.2422  0.1039
  179DOPC    C324600   1.277   0.733   1.780  0.0782 -0.2252 -0.1871
  179DOPC    HX24601   1.272   0.808   1.698 -0.3158 -0.0789 -0.0300
  179DOPC    HY24602   1.376   0.746   1.829  0.2663  0.1198 -0.6471
  179DOPC   O3124603   1.168   0.756   1.870 -0.0528  0.6478 -0.1077
  179DOPC   C3124604   1.181   0.700   1.988  0.1328 -0.0331  0.0107
  179DOPC   O3224605   1.287   0.666   2.045 -0.0355  0.0521  0.1803
  179DOPC   C3224606   1.047   0.702   2.060  0.4074  0.0967 -0.2546
  179DOPC   H2X24607   1.013   0.800   2.099  2.2174  0.3184  0.9058
  179DOPC   H2Y24608   0.968   0.660   1.994  0.0925  0.4143 -0.0796
  179DOPC   C2324609   1.534   0.294   1.967 -0.4129  0.0889 -0.5525
  179DOPC   H3R24610   1.610   0.373   1.952 -0.4813  1.1416  3.5262
  179DOPC   H3S24611   1.553   0.218   1.888 -0.9915  1.2505 -1.8519
  179DOPC   C2424612   1.549   0.232   2.102  0.2039 -0.0492 -0.4378
  179DOPC   H4R24613   1.656   0.201   2.103 -0.1128 -1.3223 -1.7734
  179DOPC   H4S24614   1.487   0.146   2.134 -1.8313  2.1394  1.9209
  179DOPC   C2524615   1.535   0.338   2.209  0.1986 -0.0548  0.5317
  179DOPC   H5R24616   1.431   0.375   2.222  0.0273 -0.8619  1.6426
  179DOPC   H5S24617   1.605   0.422   2.189 -0.3613  0.2396 -0.2699
  179DOPC   C2624618   1.577   0.287   2.353  0.3073  0.5852 -0.3425
  179DOPC   H6R24619   1.687   0.273   2.356  0.2171  0.0727  1.0529
  179DOPC   H6S24620   1.526   0.189   2.370 -0.0017  0.8322  0.1684
  179DOPC   C2724621   1.529   0.393   2.455  0.7210 -1.0545  0.4691
  179DOPC   H7R24622   1.422   0.412   2.433  1.2925 -0.0908 -1.7645
  179DOPC   H7S24623   1.584   0.487   2.432  0.8654 -1.4666 -0.9293
  179DOPC   C2824624   1.556   0.354   2.599  0.0778  0.1523 -0.4255
  179DOPC   H8R24625   1.667   0.360   2.600  0.1067 -0.2003 -1.1689
  179DOPC   H8S24626   1.504   0.257   2.616 -2.2834  1.1478 -1.5937
  179DOPC   C2924627   1.493   0.453   2.700  0.2769 -0.6176  0.2760
  179DOPC   H9R24628   1.384   0.460   2.682  0.1792  0.3726  1.2173
  179DOPC  C21024629   1.554   0.525   2.794  0.1650 -0.1661 -0.2645
  179DOPC  H10R24630   1.498   0.599   2.854  0.4260 -0.4862  0.3877
  179DOPC  C21124631   1.697   0.524   2.829  0.7162 -0.1464  0.5457
  179DOPC  H11R24632   1.746   0.438   2.779  0.3186 -0.3941  0.5873
  179DOPC  H11S24633   1.719   0.509   2.937 -3.3124 -0.8621  1.4095
  179DOPC  C21224634   1.773   0.647   2.766 -0.0283  0.4456  0.0541
  179DOPC  H12R24635   1.740   0.644   2.660  0.4106 -0.4949 -0.0698
  179DOPC  H12S24636   1.883   0.630   2.768 -0.1999 -0.9099 -0.6827
  179DOPC  C21324637   1.718   0.785   2.814  0.0056 -0.2688 -0.7424
  179DOPC  H13R24638   1.615   0.802   2.775 -0.4346 -0.5802  0.2561
  179DOPC  H13S24639   1.785   0.861   2.769 -1.0604  1.6573  0.7307
  179DOPC  C21424640   1.701   0.800   2.968  0.1678 -0.9023  0.0593
  179DOPC  H14R24641   1.634   0.726   3.016 -1.3821  1.0315  0.9942
  179DOPC  H14S24642   1.666   0.904   2.983  4.6973  0.5902  2.2110
  179DOPC  C21524643   1.833   0.805   3.045 -0.6788  0.2778  0.1678
  179DOPC  H15R24644   1.889   0.873   2.977 -0.9209 -1.9159 -2.4181
  179DOPC  H15S24645   1.879   0.704   3.042  0.7239  0.8866  0.4887
  179DOPC  C21624646   1.804   0.854   3.191 -0.2267 -0.3164  0.6674
  179DOPC  H16R24647   1.778   0.776   3.266 -0.9219 -0.0849  0.6717
  179DOPC  H16S24648   1.721   0.927   3.183  0.9340  1.0271  0.4110
  179DOPC  C21724649   1.926   0.923   3.245 -0.3515  0.1987  0.4032
  179DOPC  H17R24650   1.911   0.967   3.346  2.5937  0.0144  1.0142
  179DOPC  H17S24651   1.958   1.006   3.178 -0.5522 -0.3830 -0.4275
  179DOPC  C21824652   2.035   0.811   3.262  0.6548 -0.9030  0.4571
  179DOPC  H18R24653   1.999   0.743   3.343 -0.9932 -2.0690 -1.1878
  179DOPC  H18S24654   2.127   0.864   3.297  1.0482 -1.9766  1.0923
  179DOPC  H18T24655   2.051   0.761   3.165  3.0726  1.8438 -0.7195
  179DOPC   C3324656   1.047   0.632   2.193 -0.1020 -0.0882  0.1116
  179DOPC   H3X24657   1.083   0.527   2.186  1.7272  0.5550 -0.8219
  179DOPC   H3Y24658   0.941   0.619   2.224 -0.9752 -0.1270 -2.6572
  179DOPC   C3424659   1.125   0.712   2.297  0.9064 -0.4869  0.2089
  179DOPC   H4X24660   1.105   0.821   2.285  0.5804 -0.3213  1.9527
  179DOPC   H4Y24661   1.235   0.699   2.284  0.9429 -0.4305  0.4490
  179DOPC   C3524662   1.085   0.678   2.442  0.0056  0.5879  0.2232
  179DOPC   H5X24663   1.103   0.570   2.465 -0.5272  0.7957  1.7791
  179DOPC   H5Y24664   0.979   0.693   2.473 -0.2173 -1.6618  0.7446
  179DOPC   C3624665   1.163   0.754   2.549 -0.0911 -0.0250 -0.6794
  179DOPC   H6X24666   1.272   0.737   2.535  0.1081 -1.1659  1.7385
  179DOPC   H6Y24667   1.144   0.863   2.535  0.6975  0.1092 -0.7350
  179DOPC   C3724668   1.129   0.715   2.687  0.4117 -0.0246 -0.5742
  179DOPC   H7X24669   1.020   0.699   2.700  0.5885 -0.9827 -0.1776
  179DOPC   H7Y24670   1.173   0.624   2.732 -1.6228 -0.3894  0.8542
  179DOPC   C3824671   1.174   0.829   2.781 -0.6186  0.3572  0.0031
  179DOPC   H8X24672   1.279   0.855   2.755 -0.3389  0.8818  1.5347
  179DOPC   H8Y24673   1.186   0.801   2.887 -1.2757 -2.7118 -0.6582
  179DOPC   C3924674   1.080   0.946   2.776 -0.4829 -0.2300  0.0812
  179DOPC   H9X24675   1.105   1.023   2.702  2.4967 -0.4806  0.6848
  179DOPC  C31024676   1.001   1.002   2.874 -0.2843  0.2444 -0.0952
  179DOPC  H10X24677   0.940   1.091   2.851 -1.5782 -0.9921 -1.7274
  179DOPC  C31124678   0.965   0.923   3.004 -0.3481  0.1206  0.6483
  179DOPC  H11X24679   1.018   0.825   2.998  0.1701  0.4669 -1.1958
  179DOPC  H11Y24680   0.856   0.914   2.983  0.1359 -1.0024 -1.7886
  179DOPC  C31224681   0.994   1.007   3.129  0.5745 -0.1562  0.2433
  179DOPC  H12X24682   1.104   1.026   3.128  0.4976  0.3655 -1.6064
  179DOPC  H12Y24683   0.955   0.948   3.215 -2.9275  0.7138 -0.5893
  179DOPC  C31324684   0.902   1.132   3.140 -0.0346 -0.2156 -0.7387
  179DOPC  H13X24685   0.933   1.199   3.058  1.2789 -2.5642 -2.2753
  179DOPC  H13Y24686   0.799   1.093   3.124 -0.5399  0.8745 -0.2565
  179DOPC  C31424687   0.896   1.208   3.271 -0.0550 -0.0910  0.1933
  179DOPC  H14X24688   0.821   1.289   3.260 -0.0547 -0.3047 -1.8225
  179DOPC  H14Y24689   0.871   1.140   3.355  0.4021 -1.8327 -1.0108
  179DOPC  C31524690   1.035   1.266   3.314 -0.4918 -0.1271 -0.2614
  179DOPC  H15X24691   1.055   1.345   3.238 -0.9782 -1.1746 -1.5144
  179DOPC  H15Y24692   1.105   1.180   3.308 -1.9725 -1.3393 -0.8334
  179DOPC  C31624693   1.025   1.335   3.455  0.1707 -0.4591  0.6869
  179DOPC  H16X24694   1.127   1.374   3.477  1.3236 -3.4438  0.9981
  179DOPC  H16Y24695   0.960   1.425   3.448 -1.2692 -1.5958 -1.8894
  179DOPC  C31724696   0.994   1.237   3.570  0.9441  0.5060 -0.0667
  179DOPC  H17X24697   0.894   1.194   3.547  0.6184  0.0976  1.9857
  179DOPC  H17Y24698   1.073   1.160   3.579  1.1168  0.7334  0.3999
  179DOPC  C31824699   0.989   1.322   3.700  0.3886 -0.0204 -0.6517
  179DOPC  H18X24700   0.912   1.401   3.684  0.3184  0.6090  2.3126
  179DOPC  H18Y24701   0.971   1.262   3.791 -0.0349  2.2782  0.8614
  179DOPC  H18Z24702   1.080   1.384   3.709 -0.3080  0.8842  0.3909
  180DOPC     N24703   7.260   1.729   1.432 -0.1849  0.0110 -0.2357
  180DOPC   C1224704   7.207   1.798   1.555  0.5025  0.6787  0.1583
  180DOPC  H12A24705   7.140   1.729   1.604  0.9836  0.0177 -0.1010
  180DOPC  H12B24706   7.137   1.875   1.526 -0.1152  0.9897  2.3018
  180DOPC   C1324707   7.357   1.816   1.354  0.1850  0.1430  0.5080
  180DOPC  H13A24708   7.305   1.892   1.298 -1.0565 -0.7325  0.4281
  180DOPC  H13B24709   7.427   1.864   1.421  0.1500 -1.2421  1.5840
  180DOPC  H13C24710   7.416   1.752   1.291 -0.7986 -0.2439 -0.0484
  180DOPC   C1424711   7.145   1.705   1.338 -0.9242  0.0472 -0.2747
  180DOPC  H14A24712   7.191   1.671   1.247 -1.6994 -1.2266 -0.2113
  180DOPC  H14B24713   7.069   1.635   1.371  0.6777 -0.7229  2.0026
  180DOPC  H14C24714   7.089   1.794   1.312  0.6633  1.2059  0.1665
  180DOPC   C1524715   7.323   1.604   1.464  0.0484 -0.2897  0.6013
  180DOPC  H15A24716   7.358   1.557   1.373 -2.3032  1.7850 -1.5126
  180DOPC  H15B24717   7.243   1.548   1.510 -1.3775  2.1177  1.2489
  180DOPC  H15C24718   7.403   1.622   1.535  3.1735 -0.8794 -2.5262
  180DOPC   C1124719   7.292   1.854   1.671  0.1552 -0.4432  0.1220
  180DOPC  H11A24720   7.245   1.841   1.771  1.2108  0.7585  0.8068
  180DOPC  H11B24721   7.375   1.781   1.667 -1.0476 -1.7984 -1.1608
  180DOPC     P24722   7.219   2.107   1.666 -0.4618 -0.1971  0.0809
  180DOPC   O1324723   7.107   2.058   1.585 -0.4501 -0.1486 -0.0408
  180DOPC   O1424724   7.270   2.243   1.638 -0.5175 -0.8134 -0.3906
  180DOPC   O1224725   7.325   1.992   1.651  0.0019  0.1230  0.5155
  180DOPC   O1124726   7.169   2.088   1.817  0.0703 -0.2354 -0.6698
  180DOPC    C124727   7.263   2.104   1.925 -0.0514  0.1546  0.4570
  180DOPC    HA24728   7.322   2.196   1.905  0.1663 -0.1746 -0.4444
  180DOPC    HB24729   7.342   2.027   1.933  0.5486  0.7898  0.7703
  180DOPC    C224730   7.198   2.122   2.066 -0.0653 -0.0636  0.5739
  180DOPC    HS24731   7.271   2.168   2.136 -1.2024  0.2860  1.5611
  180DOPC   O2124732   7.138   2.003   2.115 -0.2218 -0.2841  0.5369
  180DOPC   C2124733   7.217   1.915   2.162  0.2456 -0.5873  0.5003
  180DOPC   O2224734   7.342   1.903   2.152 -0.1075 -0.2284 -0.2060
  180DOPC   C2224735   7.124   1.823   2.239 -0.6756 -0.3588 -0.3321
  180DOPC   H2R24736   7.058   1.770   2.167 -1.4002  1.2790 -0.9145
  180DOPC   H2S24737   7.069   1.895   2.303  0.0174 -0.6814  0.6540
  180DOPC    C324738   7.088   2.228   2.057 -0.7559  0.3855 -0.2313
  180DOPC    HX24739   7.020   2.171   1.990  0.3441  0.1977 -1.2221
  180DOPC    HY24740   7.121   2.318   2.001 -0.8716  0.6186  0.0729
  180DOPC   O3124741   7.037   2.267   2.184  0.3274 -0.0199  0.1328
  180DOPC   C3124742   6.916   2.322   2.176  0.2930 -0.2004  0.0476
  180DOPC   O3224743   6.856   2.330   2.068 -0.1471 -0.6237 -0.6634
  180DOPC   C3224744   6.859   2.358   2.313  0.1093 -0.7787 -0.9941
  180DOPC   H2X24745   6.781   2.434   2.294  1.4036  0.9890  0.4250
  180DOPC   H2Y24746   6.801   2.274   2.357 -0.9042  1.4520  2.2992
  180DOPC   C2324747   7.196   1.710   2.309  0.1911 -0.0238 -0.0821
  180DOPC   H3R24748   7.263   1.760   2.383 -0.7863 -0.3844  1.0744
  180DOPC   H3S24749   7.246   1.649   2.231  1.5618  1.5920 -0.5344
  180DOPC   C2424750   7.110   1.616   2.395  0.4844  0.9683  0.3237
  180DOPC   H4R24751   7.055   1.553   2.322  0.9920 -0.9818  1.5282
  180DOPC   H4S24752   7.040   1.672   2.460 -0.9779 -1.2660  0.7873
  180DOPC   C2524753   7.180   1.532   2.501  0.2211 -0.1582 -0.1811
  180DOPC   H5R24754   7.248   1.598   2.559 -0.4184 -0.4617  0.9373
  180DOPC   H5S24755   7.246   1.460   2.448 -0.9563 -0.5613 -1.1526
  180DOPC   C2624756   7.076   1.464   2.592 -0.2086  0.0566 -0.0679
  180DOPC   H6R24757   7.022   1.383   2.538  0.9389 -0.6395 -0.2015
  180DOPC   H6S24758   6.996   1.535   2.622 -1.0754 -0.5594 -0.8394
  180DOPC   C2724759   7.146   1.408   2.718 -0.2384 -0.0174  1.0274
  180DOPC   H7R24760   7.223   1.477   2.759  0.1985  0.0694  0.0806
  180DOPC   H7S24761   7.198   1.319   2.677  1.7456  1.5446 -0.0176
  180DOPC   C2824762   7.053   1.384   2.840 -0.4523  0.6182 -0.5604
  180DOPC   H8R24763   7.116   1.323   2.908 -1.8229 -0.1590  0.0602
  180DOPC   H8S24764   6.972   1.312   2.816  0.0841 -0.3148  0.3164
  180DOPC   C2924765   7.010   1.502   2.916  0.0941 -0.4545 -0.0196
  180DOPC   H9R24766   6.980   1.586   2.853 -1.4359 -0.3974  0.7292
  180DOPC  C21024767   6.977   1.507   3.046 -0.0740 -0.0782 -0.7075
  180DOPC  H10R24768   6.955   1.607   3.087  2.6137 -0.2567  1.4027
  180DOPC  C21124769   6.995   1.400   3.151  0.4430 -0.1477 -0.2380
  180DOPC  H11R24770   7.042   1.312   3.102 -0.4152 -0.3049 -0.8103
  180DOPC  H11S24771   6.896   1.360   3.181  0.4653  0.9088  1.3919
  180DOPC  C21224772   7.077   1.439   3.278 -0.0498  0.4035 -0.0766
  180DOPC  H12R24773   7.017   1.521   3.322 -1.4813 -0.4118 -0.4478
  180DOPC  H12S24774   7.182   1.473   3.260 -0.0357  0.8882  0.8698
  180DOPC  C21324775   7.109   1.327   3.382  0.6373 -0.8515 -0.0001
  180DOPC  H13R24776   7.183   1.378   3.447 -0.1097  0.1675  0.0739
  180DOPC  H13S24777   7.155   1.244   3.324 -0.5502 -0.9238 -0.8787
  180DOPC  C21424778   6.997   1.260   3.448  0.2861  0.0248 -0.2587
  180DOPC  H14R24779   6.910   1.247   3.380  0.8877  1.2431 -1.3084
  180DOPC  H14S24780   6.956   1.333   3.522  0.7546  0.3011 -0.2691
  180DOPC  C21524781   7.037   1.131   3.523  0.4000 -0.4111  0.0940
  180DOPC  H15R24782   7.127   1.168   3.576  0.8669 -2.0229  0.4766
  180DOPC  H15S24783   7.078   1.048   3.462  1.9648  0.0716  0.4554
  180DOPC  C21624784   6.935   1.086   3.633 -0.6041  0.3104 -0.0169
  180DOPC  H16R24785   6.900   1.174   3.691  0.0629  1.2816 -1.0397
  180DOPC  H16S24786   6.991   1.025   3.706  0.4272  1.8218  0.4914
  180DOPC  C21724787   6.812   1.019   3.582  0.5234  0.3130  0.1126
  180DOPC  H17R24788   6.838   0.915   3.553 -1.6969 -0.5771  1.1120
  180DOPC  H17S24789   6.768   1.080   3.500 -1.5313 -1.5600 -0.2814
  180DOPC  C21824790   6.700   1.013   3.693 -0.8641  0.3836  0.9224
  180DOPC  H18R24791   6.672   1.109   3.741 -1.7938 -0.1696  1.5318
  180DOPC  H18S24792   6.726   0.943   3.775  1.2355  0.7319  0.6069
  180DOPC  H18T24793   6.604   0.990   3.642  0.1152 -1.1013 -0.3569
  180DOPC   C3324794   6.966   2.409   2.413 -1.0340  0.2953  0.1066
  180DOPC   H3X24795   7.022   2.501   2.383  1.4481 -1.2320 -0.2055
  180DOPC   H3Y24796   7.043   2.330   2.424 -0.2894  0.7771 -1.3003
  180DOPC   C3424797   6.893   2.444   2.543 -0.4377  0.7269 -0.3692
  180DOPC   H4X24798   6.965   2.430   2.627 -1.5565 -1.0492  0.3528
  180DOPC   H4Y24799   6.813   2.370   2.565 -0.5939  0.2319 -2.4002
  180DOPC   C3524800   6.837   2.585   2.553 -0.5551 -0.2833  0.2491
  180DOPC   H5X24801   6.743   2.599   2.496  0.9014 -1.1042 -2.6010
  180DOPC   H5Y24802   6.911   2.656   2.510 -0.2978 -0.5029  0.3277
  180DOPC   C3624803   6.810   2.628   2.699 -0.2077 -0.2926 -0.9124
  180DOPC   H6X24804   6.902   2.611   2.759 -1.7964 -2.0426  1.1792
  180DOPC   H6Y24805   6.787   2.736   2.711 -0.6743 -0.4566 -0.2821
  180DOPC   C3724806   6.707   2.543   2.772  0.0861  0.5157 -0.5634
  180DOPC   H7X24807   6.626   2.532   2.696 -0.2087  1.5581 -0.4174
  180DOPC   H7Y24808   6.762   2.447   2.784 -0.6218 -0.1041 -2.0070
  180DOPC   C3824809   6.649   2.598   2.901  0.5204 -0.3699  0.3549
  180DOPC   H8X24810   6.572   2.521   2.922 -1.2797  1.7459  2.1502
  180DOPC   H8Y24811   6.603   2.698   2.884 -0.5896 -1.0349 -0.7910
  180DOPC   C3924812   6.752   2.607   3.011 -0.0317  0.1070 -0.0461
  180DOPC   H9X24813   6.831   2.681   2.991 -0.0770 -0.3916 -2.3722
  180DOPC  C31024814   6.735   2.556   3.132  0.4569  0.6655  0.1557
  180DOPC  H10X24815   6.818   2.563   3.204  0.1971  1.0818  0.4244
  180DOPC  C31124816   6.608   2.481   3.187 -0.3493  0.0297 -0.2282
  180DOPC  H11X24817   6.620   2.371   3.176  1.8005  0.1484  0.4207
  180DOPC  H11Y24818   6.522   2.504   3.121  0.2226  0.7514 -0.7409
  180DOPC  C31224819   6.596   2.512   3.335 -0.1079 -0.0141 -0.0168
  180DOPC  H12X24820   6.493   2.539   3.365  0.6764  1.4395  1.5730
  180DOPC  H12Y24821   6.657   2.602   3.361  0.6731 -0.1099 -1.4172
  180DOPC  C31324822   6.641   2.387   3.407  0.2963  1.1090  0.0196
  180DOPC  H13X24823   6.636   2.420   3.513  1.9927  0.0857  0.4596
  180DOPC  H13Y24824   6.561   2.311   3.390 -0.7395  2.1425  0.1806
  180DOPC  C31424825   6.785   2.339   3.381  0.3682 -0.5992  0.0522
  180DOPC  H14X24826   6.783   2.276   3.289 -1.7393  0.6511 -0.8346
  180DOPC  H14Y24827   6.860   2.417   3.355  0.1850  0.1481  1.7144
  180DOPC  C31524828   6.852   2.258   3.499  0.4496  0.1329  0.4723
  180DOPC  H15X24829   6.945   2.210   3.462 -0.3231 -0.9894 -0.0517
  180DOPC  H15Y24830   6.776   2.184   3.532  0.1740  0.7053  1.1494
  180DOPC  C31624831   6.889   2.338   3.624 -0.8113 -0.1629 -0.6748
  180DOPC  H16X24832   6.970   2.412   3.612 -2.8045  1.9121 -2.1760
  180DOPC  H16Y24833   6.807   2.389   3.679  1.0010 -0.3787  2.4592
  180DOPC  C31724834   6.957   2.242   3.723  0.1601 -0.5283 -0.6001
  180DOPC  H17X24835   6.902   2.147   3.737 -0.5445  0.1174  1.4375
  180DOPC  H17Y24836   7.055   2.216   3.678  0.3659  1.2621 -1.2785
  180DOPC  C31824837   6.950   2.317   3.850 -0.1724  0.2266 -0.0263
  180DOPC  H18X24838   7.015   2.406   3.860 -0.8896  0.7006  0.5628
  180DOPC  H18Y24839   6.845   2.342   3.875  0.1037 -0.4054  1.9214
  180DOPC  H18Z24840   6.971   2.240   3.928  1.0533  2.2398  1.7231
  181DOPC     N24841   8.168   7.150   1.651  0.3344  0.0212 -0.6812
  181DOPC   C1224842   8.187   7.306   1.659  0.0778 -0.4413 -0.1827
  181DOPC  H12A24843   8.272   7.316   1.593 -0.1529 -1.2761 -0.6240
  181DOPC  H12B24844   8.215   7.322   1.762 -0.6803 -0.6972  0.0711
  181DOPC   C1324845   8.290   7.084   1.701  0.7310 -0.3876  0.5245
  181DOPC  H13A24846   8.376   7.112   1.644 -0.2612  0.1581 -0.7527
  181DOPC  H13B24847   8.318   7.113   1.801 -0.1527  2.7975 -0.0579
  181DOPC  H13C24848   8.275   6.977   1.714 -1.8815 -0.0126  1.3938
  181DOPC   C1424849   8.144   7.113   1.505 -0.0143 -0.6472  0.2014
  181DOPC  H14A24850   8.145   7.006   1.493  1.4831 -0.7772  1.2341
  181DOPC  H14B24851   8.045   7.145   1.477 -1.3982 -2.0678  3.1547
  181DOPC  H14C24852   8.214   7.166   1.441 -1.5010  0.2249 -0.7722
  181DOPC   C1524853   8.046   7.107   1.730 -0.5765  0.4082  0.1374
  181DOPC  H15A24854   7.965   7.174   1.707 -2.0851 -0.8724  1.4568
  181DOPC  H15B24855   8.062   7.100   1.836  1.1964 -2.2767 -0.2037
  181DOPC  H15C24856   8.023   7.005   1.703  1.6330 -0.1099  0.0369
  181DOPC   C1124857   8.067   7.397   1.614  0.5731 -0.3965  0.4590
  181DOPC  H11A24858   8.092   7.505   1.623 -1.3399  0.3698 -2.1660
  181DOPC  H11B24859   8.047   7.381   1.506  2.2317  1.8015 -0.2539
  181DOPC     P24860   7.816   7.465   1.671  0.2345 -0.1008  0.0191
  181DOPC   O1324861   7.703   7.373   1.636 -0.0657  0.1360 -0.0855
  181DOPC   O1424862   7.839   7.584   1.585  0.2330  0.1108 -0.3417
  181DOPC   O1224863   7.949   7.377   1.683  0.3351  0.0034 -0.4400
  181DOPC   O1124864   7.785   7.518   1.819 -0.5316 -0.2419  0.1737
  181DOPC    C124865   7.898   7.579   1.885  0.2327  0.2334 -0.6261
  181DOPC    HA24866   7.931   7.661   1.818 -1.3626  1.6028  0.1606
  181DOPC    HB24867   7.984   7.509   1.887  0.3618  0.3341 -2.0709
  181DOPC    C224868   7.870   7.645   2.022  0.7430  0.7473  0.3506
  181DOPC    HS24869   7.847   7.564   2.094 -4.0874  1.4745 -0.0230
  181DOPC   O2124870   7.756   7.746   2.020 -0.1840  0.1246  0.3639
  181DOPC   C2124871   7.638   7.689   2.037  0.2494  0.4030  0.1283
  181DOPC   O2224872   7.619   7.573   2.065  0.2506  0.2476  0.6552
  181DOPC   C2224873   7.528   7.798   2.040 -0.8909 -0.4622 -0.2161
  181DOPC   H2R24874   7.427   7.755   2.025 -0.7094 -1.4530  1.1964
  181DOPC   H2S24875   7.545   7.861   1.950  1.3964 -3.5680 -2.1933
  181DOPC    C324876   8.005   7.718   2.060  0.3089  0.7048  0.0295
  181DOPC    HX24877   7.976   7.778   2.148 -1.2605 -0.4923  0.3758
  181DOPC    HY24878   8.041   7.781   1.976 -0.6296  1.5617  0.2547
  181DOPC   O3124879   8.105   7.619   2.097 -0.2483  0.4702  0.0824
  181DOPC   C3124880   8.230   7.630   2.048  0.3960 -0.5790  0.3021
  181DOPC   O3224881   8.260   7.704   1.957  0.1380 -0.5814  0.2847
  181DOPC   C3224882   8.320   7.520   2.102  0.4906 -0.7033 -0.2184
  181DOPC   H2X24883   8.292   7.421   2.061 -3.0145  1.1183 -2.6938
  181DOPC   H2Y24884   8.420   7.562   2.076  0.6898 -0.3349  1.1008
  181DOPC   C2324885   7.529   7.881   2.167 -0.5718  0.2606 -0.3999
  181DOPC   H3R24886   7.484   7.980   2.144  1.6691  1.5348  0.4546
  181DOPC   H3S24887   7.634   7.890   2.203  0.4552 -3.2243 -2.1124
  181DOPC   C2424888   7.428   7.818   2.275 -0.5409  0.5236 -0.0736
  181DOPC   H4R24889   7.448   7.709   2.280  0.1023  0.6963  2.6338
  181DOPC   H4S24890   7.325   7.820   2.234 -0.6205  0.0503  0.1019
  181DOPC   C2524891   7.437   7.867   2.417 -0.2840 -0.0881 -0.0451
  181DOPC   H5R24892   7.425   7.978   2.418 -0.2956 -0.0572 -1.5922
  181DOPC   H5S24893   7.535   7.829   2.453 -0.8838 -0.3930  1.3428
  181DOPC   C2624894   7.330   7.812   2.511 -0.2886 -0.7966  0.6510
  181DOPC   H6R24895   7.226   7.820   2.473  0.7878  3.1860 -2.0614
  181DOPC   H6S24896   7.335   7.881   2.597  1.0832  0.0458 -0.0752
  181DOPC   C2724897   7.357   7.669   2.532  0.3034  0.2496  0.7978
  181DOPC   H7R24898   7.466   7.649   2.544  0.0771 -1.2834  0.4780
  181DOPC   H7S24899   7.329   7.614   2.439  0.4086  0.7651  0.4573
  181DOPC   C2824900   7.279   7.607   2.650  0.5825  0.3115  0.0417
  181DOPC   H8R24901   7.326   7.507   2.664 -1.0082 -1.1413 -3.7989
  181DOPC   H8S24902   7.175   7.591   2.617  0.5522 -1.9803  1.0422
  181DOPC   C2924903   7.281   7.678   2.784 -0.3910 -0.3134  0.9114
  181DOPC   H9R24904   7.184   7.709   2.825 -2.5095 -3.0971 -1.5284
  181DOPC  C21024905   7.389   7.675   2.868  0.7236 -0.2073  0.3195
  181DOPC  H10R24906   7.376   7.723   2.967 -0.8923 -0.3196  0.1922
  181DOPC  C21124907   7.518   7.602   2.853 -0.2709 -0.3923  0.2023
  181DOPC  H11R24908   7.566   7.627   2.756  1.0488  0.0013  0.9349
  181DOPC  H11S24909   7.502   7.492   2.856 -1.2348 -0.2518  1.2254
  181DOPC  C21224910   7.630   7.635   2.950  0.8738 -0.0976 -0.2251
  181DOPC  H12R24911   7.637   7.746   2.959  2.7368 -0.3092  1.4792
  181DOPC  H12S24912   7.732   7.605   2.920  1.2476  2.3573 -1.7095
  181DOPC  C21324913   7.615   7.574   3.094 -0.6062  0.0507 -0.3061
  181DOPC  H13R24914   7.632   7.465   3.085  0.1465  0.0107  1.2513
  181DOPC  H13S24915   7.514   7.595   3.135 -0.6328 -0.5890 -0.0391
  181DOPC  C21424916   7.717   7.633   3.195 -0.3916 -0.1514 -0.1681
  181DOPC  H14R24917   7.691   7.738   3.223  1.4362  0.4577 -0.6231
  181DOPC  H14S24918   7.815   7.642   3.145 -1.0699  0.8865 -1.3968
  181DOPC  C21524919   7.737   7.540   3.321  0.3568 -0.4412  0.6735
  181DOPC  H15R24920   7.751   7.435   3.284 -1.5573 -0.2315 -0.8413
  181DOPC  H15S24921   7.643   7.547   3.380 -1.7906 -2.3406 -2.2138
  181DOPC  C21624922   7.859   7.573   3.413  0.6558 -0.7913  0.3420
  181DOPC  H16R24923   7.856   7.684   3.417 -3.2987 -0.7878  0.8969
  181DOPC  H16S24924   7.955   7.550   3.362  0.8778  1.2583 -0.2644
  181DOPC  C21724925   7.854   7.517   3.561  0.3921 -0.6426  0.1962
  181DOPC  H17R24926   7.778   7.569   3.623 -0.0791 -0.1606 -0.7548
  181DOPC  H17S24927   7.952   7.550   3.601  2.0631 -1.4449 -2.8932
  181DOPC  C21824928   7.836   7.362   3.571  0.0889  0.1389 -0.5538
  181DOPC  H18R24929   7.910   7.315   3.502  1.7089  1.2108  0.3802
  181DOPC  H18S24930   7.734   7.343   3.532 -0.0296 -2.1898  0.6681
  181DOPC  H18T24931   7.854   7.326   3.675 -0.7364 -1.1599 -0.8346
  181DOPC   C3324932   8.291   7.518   2.259 -0.3728  0.6204 -0.0128
  181DOPC   H3X24933   8.350   7.432   2.297 -0.4276 -0.2587 -1.8315
  181DOPC   H3Y24934   8.184   7.498   2.283 -0.3064 -2.4740 -1.8090
  181DOPC   C3424935   8.339   7.646   2.329  0.0114  0.1059 -0.4912
  181DOPC   H4X24936   8.270   7.729   2.301 -0.6548  0.0560  0.8887
  181DOPC   H4Y24937   8.447   7.668   2.317  0.1707  0.0673  0.7193
  181DOPC   C3524938   8.332   7.627   2.487 -0.4532  0.2567  0.0924
  181DOPC   H5X24939   8.375   7.528   2.515 -2.4460 -0.4300  0.8758
  181DOPC   H5Y24940   8.233   7.628   2.537 -0.3804  0.2240  0.2357
  181DOPC   C3624941   8.418   7.736   2.558 -0.5629 -0.7334 -0.2607
  181DOPC   H6X24942   8.524   7.707   2.542 -1.2523 -2.1580 -2.6839
  181DOPC   H6Y24943   8.390   7.831   2.509 -0.1355  0.4063  1.6086
  181DOPC   C3724944   8.386   7.753   2.711  0.4371  0.0257  0.4941
  181DOPC   H7X24945   8.276   7.740   2.716  0.4733  0.1835  2.2553
  181DOPC   H7Y24946   8.432   7.671   2.770  0.1767 -0.0952  0.5303
  181DOPC   C3824947   8.421   7.882   2.792 -0.4941 -0.2956  0.2006
  181DOPC   H8X24948   8.381   7.862   2.894 -1.5274  0.3644 -0.0576
  181DOPC   H8Y24949   8.367   7.966   2.742  1.6718  0.2684 -1.3596
  181DOPC   C3924950   0.029   7.913   2.788 -0.2481  0.2440  0.2154
  181DOPC   H9X24951   0.085   7.895   2.694  0.0552 -1.6613  0.7198
  181DOPC  C31024952   0.105   7.970   2.890  0.4874 -0.7910 -0.3682
  181DOPC  H10X24953   0.213   7.974   2.872  0.2740  1.3895 -1.5409
  181DOPC  C31124954   0.058   8.008   3.035  0.1884 -1.0593  0.8572
  181DOPC  H11X24955   0.141   8.054   3.093 -0.8204  0.4702  1.1561
  181DOPC  H11Y24956   0.023   7.922   3.095  0.1207 -0.5938  1.4955
  181DOPC  C31224957   8.472   8.112   3.043  0.1665 -0.3077  0.6790
  181DOPC  H12X24958   8.390   8.060   2.990  1.1500 -0.0125 -1.2029
  181DOPC  H12Y24959   8.511   8.198   2.984 -1.8084  0.4430  0.4005
  181DOPC  C31324960   8.430   8.148   3.187  0.0575 -0.7066 -0.2004
  181DOPC  H13X24961   8.334   8.204   3.189  1.4576  1.8626  0.1176
  181DOPC  H13Y24962   8.423   8.053   3.243  0.4409  0.4732  1.9843
  181DOPC  C31424963   8.530   8.241   3.254  0.9948 -0.0930 -0.2496
  181DOPC  H14X24964   0.089   8.184   3.268  0.4710 -0.7062  0.8531
  181DOPC  H14Y24965   0.020   8.338   3.205 -0.2161  0.8793  0.9865
  181DOPC  C31524966   8.492   8.283   3.403  0.2037  0.3023 -0.1439
  181DOPC  H15X24967   8.434   8.193   3.432 -3.6109  1.5927 -2.9356
  181DOPC  H15Y24968   8.421   8.369   3.403  0.3610  0.5107 -2.7546
  181DOPC  C31624969   0.081   8.290   3.496  0.1753  0.2044  0.4139
  181DOPC  H16X24970   0.138   8.194   3.494  0.1148  0.1484  1.0637
  181DOPC  H16Y24971   0.145   8.359   3.437 -1.5320  1.7522  0.2990
  181DOPC  C31724972   0.051   8.352   3.636 -0.9948 -0.3429  0.5550
  181DOPC  H17X24973   0.008   8.271   3.700 -0.6071 -1.2497 -0.3202
  181DOPC  H17Y24974   0.143   8.392   3.684 -0.5991 -2.8595  2.0810
  181DOPC  C31824975   8.483   8.463   3.648 -0.0568 -0.3974  0.3460
  181DOPC  H18X24976   8.383   8.432   3.610  0.2446  0.7873 -1.5457
  181DOPC  H18Y24977   8.469   8.490   3.755  3.5069  2.4850  0.2724
  181DOPC  H18Z24978   8.510   0.018   3.590  1.6641 -0.9317  0.2590
  182DOPC     N24979   6.706   1.149   1.500  0.0924 -0.4287  0.4039
  182DOPC   C1224980   6.621   1.030   1.510  0.3898  0.5933 -0.1205
  182DOPC  H12A24981   6.617   0.977   1.416 -1.3833 -0.6390  0.5822
  182DOPC  H12B24982   6.520   1.059   1.532 -0.8343 -0.6185 -3.4406
  182DOPC   C1324983   6.696   1.239   1.622  0.5113  0.0014  0.5533
  182DOPC  H13A24984   6.598   1.278   1.648  1.4685  2.5026  0.6594
  182DOPC  H13B24985   6.734   1.174   1.699  1.9809 -1.6126 -1.4347
  182DOPC  H13C24986   6.763   1.323   1.612  1.3601 -0.7181  0.1279
  182DOPC   C1424987   6.657   1.233   1.381 -0.2054  0.0553  1.0614
  182DOPC  H14A24988   6.566   1.284   1.406 -1.7766 -0.6204 -2.6321
  182DOPC  H14B24989   6.726   1.311   1.351 -2.5330  1.1020 -2.0441
  182DOPC  H14C24990   6.634   1.166   1.300 -1.2805 -1.2118  2.3625
  182DOPC   C1524991   6.850   1.120   1.472 -0.3713  0.3967  0.3702
  182DOPC  H15A24992   6.888   1.052   1.547  2.0174 -3.1079 -3.5653
  182DOPC  H15B24993   6.908   1.210   1.485  1.2731 -0.8193  1.9990
  182DOPC  H15C24994   6.865   1.081   1.373 -0.0377  0.6586  0.3187
  182DOPC   C1124995   6.655   0.929   1.622 -0.4347  0.0941 -0.0527
  182DOPC  H11A24996   6.603   0.831   1.622  0.7343 -0.5568  0.1856
  182DOPC  H11B24997   6.763   0.906   1.608 -0.5310 -0.4047  0.0089
  182DOPC     P24998   6.504   1.006   1.819  0.2758 -0.3805  0.0427
  182DOPC   O1324999   6.482   0.882   1.901 -0.4431  0.1504 -0.4779
  182DOPC   O1425000   6.399   1.043   1.723 -0.0713 -0.2423  0.3482
  182DOPC   O1225001   6.643   0.994   1.750 -0.1828  0.3386  0.3726
  182DOPC   O1125002   6.516   1.127   1.919  0.3210 -0.6264 -0.4193
  182DOPC    C125003   6.640   1.157   1.983  0.4683  0.0608 -0.3366
  182DOPC    HA25004   6.694   1.240   1.932  1.6004  0.2737  1.1233
  182DOPC    HB25005   6.709   1.071   1.978 -0.5480 -0.7524 -0.5362
  182DOPC    C225006   6.624   1.180   2.141  0.3586  0.4589  0.7043
  182DOPC    HS25007   6.723   1.161   2.189  0.5351 -1.7569 -0.4327
  182DOPC   O2125008   6.524   1.094   2.202 -0.2778  0.0418  0.1903
  182DOPC   C2125009   6.568   0.978   2.244  0.1058  0.5402 -0.2770
  182DOPC   O2225010   6.686   0.939   2.234  0.5417 -0.2642  0.4772
  182DOPC   C2225011   6.451   0.921   2.330 -0.2961  0.2292 -0.2581
  182DOPC   H2R25012   6.355   0.934   2.275 -1.1384  1.2435  1.3785
  182DOPC   H2S25013   6.441   0.971   2.429 -1.1718  1.4430 -0.9311
  182DOPC    C325014   6.579   1.326   2.174 -0.0286  0.4342 -0.4273
  182DOPC    HX25015   6.488   1.331   2.111 -0.5047  2.9266  0.3412
  182DOPC    HY25016   6.651   1.400   2.132 -0.2367  0.9214  0.0647
  182DOPC   O3125017   6.548   1.356   2.306  0.0127 -0.2531  0.3930
  182DOPC   C3125018   6.652   1.373   2.387  0.1346  0.5630 -0.3976
  182DOPC   O3225019   6.768   1.362   2.358 -0.6881  0.0673  0.0528
  182DOPC   C3225020   6.600   1.414   2.523  0.8964  0.3860  0.2226
  182DOPC   H2X25021   6.540   1.507   2.524 -1.2705 -0.9207 -0.3138
  182DOPC   H2Y25022   6.530   1.338   2.565  1.0727  0.9965  1.6519
  182DOPC   C2325023   6.481   0.773   2.366  0.2838 -0.0225 -0.6124
  182DOPC   H3R25024   6.589   0.759   2.390  0.1332  0.9088  0.7709
  182DOPC   H3S25025   6.458   0.707   2.280  0.1482 -1.4467  0.4824
  182DOPC   C2425026   6.402   0.728   2.489 -0.1390  0.4193  0.1053
  182DOPC   H4R25027   6.448   0.771   2.581  1.4427 -0.4634 -0.2370
  182DOPC   H4S25028   6.413   0.618   2.496 -0.4840  0.1010 -3.1218
  182DOPC   C2525029   6.255   0.738   2.476  0.3142  0.0017  0.1320
  182DOPC   H5R25030   6.197   0.644   2.487  0.8879 -0.2775  0.8620
  182DOPC   H5S25031   6.223   0.798   2.388 -1.5236 -2.0612 -0.6743
  182DOPC   C2625032   6.195   0.812   2.607  0.1228  0.1363 -0.1046
  182DOPC   H6R25033   6.258   0.902   2.621 -1.5870  1.4753 -0.6478
  182DOPC   H6S25034   6.197   0.740   2.692 -3.7060 -0.1309 -0.0555
  182DOPC   C2725035   6.050   0.858   2.585  0.1319  0.4930 -0.3470
  182DOPC   H7R25036   5.977   0.776   2.573 -0.3216  0.9985 -1.1305
  182DOPC   H7S25037   6.048   0.930   2.500 -0.6144 -0.8225 -1.4856
  182DOPC   C2825038   6.004   0.938   2.712  0.1868  0.1434 -0.4413
  182DOPC   H8R25039   6.028   0.864   2.791 -1.8075 -0.5825 -0.4403
  182DOPC   H8S25040   5.894   0.952   2.720  0.2614 -0.3038  2.4379
  182DOPC   C2925041   6.067   1.079   2.719  0.0117  1.0947 -0.0361
  182DOPC   H9R25042   6.046   1.146   2.634 -0.0468  1.2119  0.0719
  182DOPC  C21025043   6.138   1.138   2.819 -0.0622 -0.9681  0.5034
  182DOPC  H10R25044   6.195   1.230   2.802 -0.0218 -0.5544  2.6563
  182DOPC  C21125045   6.169   1.069   2.951  0.7410 -0.4166  0.2733
  182DOPC  H11R25046   6.267   1.112   2.981  0.8705  2.3118 -3.2968
  182DOPC  H11S25047   6.177   0.960   2.932  0.9410  0.0264 -2.7416
  182DOPC  C21225048   6.061   1.091   3.060 -0.8712  0.2265 -0.6660
  182DOPC  H12R25049   5.963   1.064   3.016 -1.1340  0.2848 -0.1236
  182DOPC  H12S25050   6.060   1.201   3.076 -0.4115  0.0133  0.9742
  182DOPC  C21325051   6.077   1.012   3.195 -0.2446  0.2175 -0.1214
  182DOPC  H13R25052   6.176   1.037   3.238  0.6249 -0.2985 -1.7297
  182DOPC  H13S25053   6.070   0.905   3.165 -0.6605  0.1864  0.0821
  182DOPC  C21425054   5.958   1.017   3.296 -0.5328  0.3142  0.6212
  182DOPC  H14R25055   5.953   0.919   3.347  1.1889  0.9185  2.0254
  182DOPC  H14S25056   5.873   1.012   3.224  0.8478  1.2366 -1.1453
  182DOPC  C21525057   5.944   1.133   3.397  0.0266 -0.1928 -0.0344
  182DOPC  H15R25058   5.849   1.149   3.452  0.8256 -0.5586  1.5023
  182DOPC  H15S25059   5.949   1.226   3.336 -0.2216  0.4622  0.9354
  182DOPC  C21625060   6.064   1.135   3.489 -0.0277 -0.2075  0.6286
  182DOPC  H16R25061   6.152   1.151   3.423  0.1930  2.0450  1.3895
  182DOPC  H16S25062   6.072   1.036   3.538 -0.1285 -0.8036 -0.5358
  182DOPC  C21725063   6.037   1.233   3.604 -0.2705 -0.4439  0.2221
  182DOPC  H17R25064   5.968   1.192   3.681 -0.3436  1.0317  0.9873
  182DOPC  H17S25065   5.987   1.325   3.566  0.0434 -0.0786  0.6737
  182DOPC  C21825066   6.163   1.287   3.672 -0.3004  0.4114 -0.5258
  182DOPC  H18R25067   6.146   1.365   3.749  2.4604 -0.2524  0.8967
  182DOPC  H18S25068   6.242   1.324   3.603 -0.1848  0.5480 -0.3222
  182DOPC  H18T25069   6.205   1.199   3.726  0.4700  2.0030  1.6122
  182DOPC   C3325070   6.716   1.414   2.629  0.7577  0.0418 -0.3251
  182DOPC   H3X25071   6.788   1.493   2.598  1.0759 -0.5581 -1.1338
  182DOPC   H3Y25072   6.760   1.312   2.630 -1.1897 -0.8965  2.5516
  182DOPC   C3425073   6.658   1.460   2.770  0.0778  0.0442 -0.1324
  182DOPC   H4X25074   6.701   1.398   2.852 -3.5121  1.2735  2.9627
  182DOPC   H4Y25075   6.550   1.438   2.765  0.0588  0.3484 -1.3929
  182DOPC   C3525076   6.676   1.616   2.792 -0.1069  0.0782  0.0440
  182DOPC   H5X25077   6.684   1.660   2.690 -2.2815 -0.5941 -0.4536
  182DOPC   H5Y25078   6.772   1.648   2.838  0.2452  0.2130 -0.7637
  182DOPC   C3625079   6.553   1.673   2.865  0.0989  1.0005  0.7050
  182DOPC   H6X25080   6.464   1.655   2.801  0.4165  0.4085  0.4245
  182DOPC   H6Y25081   6.534   1.618   2.960  1.7539 -0.5997  0.1553
  182DOPC   C3725082   6.566   1.818   2.906  0.2105  0.6669 -0.2926
  182DOPC   H7X25083   6.523   1.830   3.008 -0.3183  0.0365 -0.4355
  182DOPC   H7Y25084   6.676   1.836   2.906  0.5059 -0.9858 -0.4243
  182DOPC   C3825085   6.500   1.916   2.801 -0.5353 -0.2146 -0.0476
  182DOPC   H8X25086   6.391   1.903   2.815 -0.3251 -1.2315  0.7420
  182DOPC   H8Y25087   6.517   1.888   2.695  1.3611  0.7939 -0.0699
  182DOPC   C3925088   6.541   2.068   2.823 -0.3234 -0.1094 -0.1909
  182DOPC   H9X25089   6.494   2.123   2.906 -2.9156 -2.6641  0.1932
  182DOPC  C31025090   6.648   2.130   2.776 -0.1009 -0.0308 -0.1068
  182DOPC  H10X25091   6.676   2.226   2.822 -0.5848 -0.1024  0.3388
  182DOPC  C31125092   6.749   2.069   2.676 -0.4449  0.2062  0.3121
  182DOPC  H11X25093   6.778   2.141   2.596  1.6381 -1.5079 -0.5612
  182DOPC  H11Y25094   6.692   2.001   2.609  0.3148  0.6824 -0.8581
  182DOPC  C31225095   6.869   2.001   2.737  0.2794 -0.4788  0.2758
  182DOPC  H12X25096   6.951   1.981   2.666  0.4715  0.6983  0.1369
  182DOPC  H12Y25097   6.854   1.898   2.775  1.9516 -1.4399 -1.5171
  182DOPC  C31325098   6.927   2.065   2.866 -0.4040  0.7626  0.4403
  182DOPC  H13X25099   6.970   2.162   2.831  1.1821  0.0898  0.4291
  182DOPC  H13Y25100   6.843   2.075   2.938 -1.3195  1.0279 -0.6379
  182DOPC  C31425101   7.034   1.966   2.920  0.6896  0.6088 -0.5039
  182DOPC  H14X25102   7.004   1.859   2.915  2.6709  0.0383 -1.1650
  182DOPC  H14Y25103   7.115   1.971   2.845 -0.0770  0.3800 -1.3677
  182DOPC  C31525104   7.073   1.994   3.063  0.1397  0.4683 -0.3424
  182DOPC  H15X25105   7.093   2.103   3.067 -0.6822  0.5941  0.7238
  182DOPC  H15Y25106   7.173   1.950   3.084 -0.9802 -2.1437 -0.1002
  182DOPC  C31625107   6.972   1.934   3.162  0.1095 -0.0421  0.5821
  182DOPC  H16X25108   6.887   2.004   3.177 -0.0872 -0.6066  2.3316
  182DOPC  H16Y25109   6.919   1.846   3.120  0.2067 -0.6834  1.7659
  182DOPC  C31725110   7.033   1.892   3.295 -0.3083  0.4691 -0.9987
  182DOPC  H17X25111   7.112   1.817   3.272 -0.0515  0.5015 -0.2669
  182DOPC  H17Y25112   7.082   1.984   3.333  0.5200 -0.7222  0.9845
  182DOPC  C31825113   6.923   1.849   3.393  0.8838 -0.4562 -0.2064
  182DOPC  H18X25114   6.967   1.820   3.491  2.9679  0.6550 -0.7606
  182DOPC  H18Y25115   6.866   1.941   3.416  3.8732  1.3326  0.5519
  182DOPC  H18Z25116   6.862   1.764   3.356 -0.1457 -0.3850  1.2570
  183DOPC     N25117   2.369   0.221   1.321 -0.8243  0.1517  0.3647
  183DOPC   C1225118   2.278   0.100   1.352  1.2132  0.0480 -0.2507
  183DOPC  H12A25119   2.312   0.015   1.295 -0.8077 -1.1656  0.2413
  183DOPC  H12B25120   2.180   0.127   1.314  1.4115 -0.6978 -1.3731
  183DOPC   C1325121   2.373   0.244   1.171 -0.4278 -0.5108  0.4815
  183DOPC  H13A25122   2.271   0.263   1.142 -0.2526 -0.9846 -0.4795
  183DOPC  H13B25123   2.427   0.333   1.145  0.2338 -1.5571 -2.0482
  183DOPC  H13C25124   2.403   0.159   1.111  3.4802  1.9798 -1.5010
  183DOPC   C1425125   2.507   0.176   1.364 -0.4407 -0.2347  0.4690
  183DOPC  H14A25126   2.501   0.145   1.467 -1.5286  1.5617  0.9849
  183DOPC  H14B25127   2.526   0.089   1.303 -2.7734 -0.2835 -0.3028
  183DOPC  H14C25128   2.581   0.255   1.364 -0.0218 -0.6224  0.3192
  183DOPC   C1525129   2.322   0.347   1.377  0.8296  0.3091  0.1844
  183DOPC  H15A25130   2.384   0.425   1.335  1.3618  0.9476  2.0783
  183DOPC  H15B25131   2.334   0.346   1.484 -2.0297  0.8273  0.5995
  183DOPC  H15C25132   2.216   0.359   1.357  0.7712 -0.9250 -0.3512
  183DOPC   C1125133   2.273   0.053   1.503  0.3914 -0.6097  0.2820
  183DOPC  H11A25134   2.238   0.146   1.552  2.5513 -0.0408  0.8576
  183DOPC  H11B25135   2.193   8.512   1.515 -0.2677  0.4389  3.2084
  183DOPC     P25136   2.444   8.390   1.541  0.3450 -0.2820  0.2028
  183DOPC   O1325137   2.582   8.373   1.583 -0.1812  0.3955 -0.6779
  183DOPC   O1425138   2.411   8.336   1.408  0.2540 -0.0498 -0.2589
  183DOPC   O1225139   2.396   0.009   1.547 -0.0320 -0.1879  0.4021
  183DOPC   O1125140   2.353   8.310   1.645  0.3331  0.1546 -0.1342
  183DOPC    C125141   2.373   8.342   1.784 -0.9095  0.0461 -0.2039
  183DOPC    HA25142   2.323   8.437   1.816 -1.4351 -0.2669 -0.0858
  183DOPC    HB25143   2.479   8.362   1.808 -1.7370  2.6485  1.7844
  183DOPC    C225144   2.320   8.231   1.879 -0.0398 -0.0665  0.4632
  183DOPC    HS25145   2.212   8.216   1.857  0.4112  0.0554 -2.1094
  183DOPC   O2125146   2.342   8.267   2.012 -0.3539  0.0707  0.0183
  183DOPC   C2125147   2.245   8.344   2.064  0.3183 -0.2154 -0.0663
  183DOPC   O2225148   2.142   8.374   2.007 -0.4313 -0.1336 -0.2539
  183DOPC   C2225149   2.286   8.372   2.200  0.0398 -1.6987  0.4801
  183DOPC   H2R25150   2.381   8.426   2.186 -1.9922  1.7246 -1.2267
  183DOPC   H2S25151   2.300   8.277   2.256 -1.1718 -2.4405 -0.4154
  183DOPC    C325152   2.395   8.093   1.857 -0.1851  0.7389 -0.2008
  183DOPC    HX25153   2.503   8.118   1.870 -0.3264  0.4166  2.0523
  183DOPC    HY25154   2.378   8.056   1.754  0.2318  3.4214 -1.3169
  183DOPC   O3125155   2.357   7.994   1.954 -0.2512 -0.4084 -0.2177
  183DOPC   C3125156   2.296   7.880   1.920 -0.4215  0.1269  0.2285
  183DOPC   O3225157   2.263   7.847   1.806 -0.1330 -0.0347 -0.0710
  183DOPC   C3225158   2.280   7.787   2.035 -1.2489 -0.3736  0.1620
  183DOPC   H2X25159   2.361   7.711   2.046  0.4349  1.2695 -0.3707
  183DOPC   H2Y25160   2.274   7.854   2.123 -1.3667 -0.5091  0.2584
  183DOPC   C2325161   2.184   8.453   2.290 -0.1502 -0.5138  0.4898
  183DOPC   H3R25162   2.088   8.400   2.308 -1.3073  1.0150 -0.8556
  183DOPC   H3S25163   2.157   0.006   2.228 -1.7771 -1.0889  0.3411
  183DOPC   C2425164   2.244   8.507   2.415  0.9251 -0.1646 -0.4117
  183DOPC   H4R25165   2.185   0.060   2.449  1.1571  0.0859 -0.6536
  183DOPC   H4S25166   2.342   0.018   2.389  0.8256 -0.9082 -2.2427
  183DOPC   C2525167   2.241   8.411   2.536 -0.1949 -0.1319 -0.2559
  183DOPC   H5R25168   2.302   8.323   2.506  2.0636  0.9361  0.9379
  183DOPC   H5S25169   2.134   8.383   2.549 -0.6157  1.4778 -0.0483
  183DOPC   C2625170   2.303   8.468   2.660  0.1490 -0.8016 -0.1409
  183DOPC   H6R25171   2.272   0.036   2.686 -2.3243 -1.8337  1.3268
  183DOPC   H6S25172   2.412   8.472   2.640  0.4002  1.9776  1.3717
  183DOPC   C2725173   2.275   8.376   2.781  0.0859 -0.3250 -0.4566
  183DOPC   H7R25174   2.313   8.278   2.745 -0.4661 -0.8109  0.2646
  183DOPC   H7S25175   2.167   8.367   2.806  0.0210 -1.3830 -1.0493
  183DOPC   C2825176   2.357   8.435   2.896 -0.4583 -0.2060  0.0334
  183DOPC   H8R25177   2.302   8.530   2.915 -2.7721 -1.2904 -0.8528
  183DOPC   H8S25178   2.461   8.459   2.867 -1.7618  1.5242 -3.8226
  183DOPC   C2925179   2.362   8.332   3.010 -0.7754  0.0644 -0.5358
  183DOPC   H9R25180   2.442   8.258   2.997 -2.5717 -2.1482  0.2362
  183DOPC  C21025181   2.283   8.324   3.125  0.0510 -0.2768  0.4745
  183DOPC  H10R25182   2.300   8.240   3.194  3.0874  0.4893  0.8114
  183DOPC  C21125183   2.166   8.407   3.161  0.3817 -0.1351  0.0145
  183DOPC  H11R25184   2.076   8.342   3.150  0.4041  0.1648 -2.4310
  183DOPC  H11S25185   2.144   8.488   3.088  0.0965  0.0175  0.2660
  183DOPC  C21225186   2.161   8.459   3.302  0.7056 -0.0019 -0.0460
  183DOPC  H12R25187   2.243   8.532   3.320  0.7471  0.2486 -1.1873
  183DOPC  H12S25188   2.161   8.380   3.380 -1.9077 -1.7696 -1.6714
  183DOPC  C21325189   2.041   0.019   3.317  0.2298 -0.0424  0.6606
  183DOPC  H13R25190   1.945   8.498   3.322 -0.3224  0.5144 -2.0467
  183DOPC  H13S25191   2.012   0.089   3.236 -0.4905 -1.2056 -0.1201
  183DOPC  C21425192   2.041   0.086   3.461 -0.2699  0.3058  0.6351
  183DOPC  H14R25193   2.108   0.175   3.463  1.7083 -1.1169  0.3117
  183DOPC  H14S25194   2.073   0.005   3.530 -0.1428 -0.4158 -0.2562
  183DOPC  C21525195   1.908   0.124   3.524  0.4528 -0.7147 -0.0668
  183DOPC  H15R25196   1.836   0.040   3.523 -2.0625  1.3187 -0.0730
  183DOPC  H15S25197   1.855   0.199   3.462  1.5149  0.4343  0.3646
  183DOPC  C21625198   1.923   0.175   3.672  0.6714 -0.1166  0.1701
  183DOPC  H16R25199   1.976   0.096   3.730 -0.0675 -0.0958  0.8988
  183DOPC  H16S25200   1.818   0.168   3.708  0.0403 -0.4018 -1.5948
  183DOPC  C21725201   1.958   0.323   3.685  0.4300 -0.1468 -0.1731
  183DOPC  H17R25202   1.879   0.382   3.634 -0.9864 -1.7604  0.0644
  183DOPC  H17S25203   2.052   0.350   3.633  0.9312  0.0728  0.8356
  183DOPC  C21825204   1.955   0.370   3.829 -0.6133 -0.0670 -0.5219
  183DOPC  H18R25205   1.996   0.295   3.900  0.8446  0.9550 -0.2122
  183DOPC  H18S25206   1.854   0.400   3.864 -1.1296 -0.2681 -1.7828
  183DOPC  H18T25207   2.022   0.458   3.845  3.7142 -3.1511  0.1733
  183DOPC   C3325208   2.148   7.709   2.019 -0.1561 -0.4170 -0.3533
  183DOPC   H3X25209   2.167   7.638   1.935  2.0434 -0.9364  0.5087
  183DOPC   H3Y25210   2.067   7.779   1.991  0.6981  1.7004  2.1333
  183DOPC   C3425211   2.096   7.634   2.145 -0.8336  0.6960  0.3391
  183DOPC   H4X25212   1.996   7.594   2.119 -1.3309  0.9478  1.7931
  183DOPC   H4Y25213   2.081   7.713   2.222 -0.4681  0.4395  0.6803
  183DOPC   C3525214   2.192   7.519   2.186  0.1238  0.5506  0.0004
  183DOPC   H5X25215   2.278   7.555   2.245  1.2537 -1.7859 -0.1033
  183DOPC   H5Y25216   2.235   7.469   2.096  2.3978 -0.7080  1.7061
  183DOPC   C3625217   2.113   7.408   2.256 -0.9392  0.3078 -0.2653
  183DOPC   H6X25218   2.003   7.410   2.245 -0.9745  0.1909  0.0510
  183DOPC   H6Y25219   2.144   7.312   2.209  1.4855  1.7414 -1.7952
  183DOPC   C3725220   2.167   7.395   2.403 -0.3642  0.0477 -0.2352
  183DOPC   H7X25221   2.121   7.303   2.443  0.1135  0.4629  1.3308
  183DOPC   H7Y25222   2.277   7.382   2.397 -0.1298  0.7134  1.9767
  183DOPC   C3825223   2.127   7.518   2.491  0.4190  0.1524 -0.1338
  183DOPC   H8X25224   2.168   7.606   2.437  0.6823  0.5693  0.7293
  183DOPC   H8Y25225   2.178   7.505   2.589 -0.5239  0.0587  0.3537
  183DOPC   C3925226   1.986   7.524   2.518 -0.2530  0.4202  0.3458
  183DOPC   H9X25227   1.921   7.544   2.432 -0.1037  1.9988  0.5672
  183DOPC  C31025228   1.915   7.507   2.631 -0.2069 -0.3759 -1.1892
  183DOPC  H10X25229   1.806   7.490   2.627 -0.9258  3.5031 -1.1564
  183DOPC  C31125230   1.977   7.491   2.770  0.1885 -0.0204 -0.2051
  183DOPC  H11X25231   2.068   7.427   2.763  1.0954  1.3845 -2.1594
  183DOPC  H11Y25232   1.908   7.433   2.834  2.8901 -1.8317  1.2812
  183DOPC  C31225233   2.023   7.624   2.830 -0.4135 -0.1421 -0.8414
  183DOPC  H12X25234   1.935   7.691   2.836 -0.6649 -0.5520  0.3869
  183DOPC  H12Y25235   2.104   7.664   2.766  0.0750  0.2497  0.0159
  183DOPC  C31325236   2.080   7.613   2.973  0.4462 -0.1263  0.4467
  183DOPC  H13X25237   2.000   7.564   3.031  0.0701  1.9558  1.8190
  183DOPC  H13Y25238   2.171   7.549   2.973 -1.4033 -2.9737 -1.2603
  183DOPC  C31425239   2.095   7.759   3.034 -0.1324 -0.3140 -0.2071
  183DOPC  H14X25240   2.161   7.822   2.971 -1.8871 -0.7182 -2.5993
  183DOPC  H14Y25241   2.005   7.823   3.025  1.2194  1.8263  0.7146
  183DOPC  C31525242   2.148   7.761   3.176  0.4258 -0.1271 -0.5021
  183DOPC  H15X25243   2.160   7.867   3.207  0.0696 -0.1373 -0.3249
  183DOPC  H15Y25244   2.256   7.734   3.173  0.6705  0.8417 -0.6570
  183DOPC  C31625245   2.059   7.694   3.277 -0.3803 -0.1048  0.2146
  183DOPC  H16X25246   1.956   7.733   3.267 -0.3252  0.1423  0.6058
  183DOPC  H16Y25247   2.042   7.589   3.245 -0.6960  0.0131 -0.0059
  183DOPC  C31725248   2.093   7.718   3.423  0.1703  0.0336  1.0195
  183DOPC  H17X25249   2.194   7.675   3.443  0.0525  0.4484  2.5860
  183DOPC  H17Y25250   2.102   7.828   3.437  2.3950  0.3869 -2.0780
  183DOPC  C31825251   1.995   7.657   3.522 -0.3008  0.0604  0.4961
  183DOPC  H18X25252   2.004   7.546   3.519 -1.2090 -0.0263  0.6812
  183DOPC  H18Y25253   2.015   7.698   3.623  1.1599 -1.8394  1.0499
  183DOPC  H18Z25254   1.891   7.688   3.500 -1.4572 -2.0602  2.4653
  184DOPC     N25255   2.426   2.023   1.326  0.4865 -0.0928 -0.1796
  184DOPC   C1225256   2.395   1.969   1.460 -0.2151 -0.1249  0.4432
  184DOPC  H12A25257   2.291   1.994   1.471 -0.2351 -0.0683  0.1305
  184DOPC  H12B25258   2.454   2.024   1.532 -0.1363 -0.5431  0.7013
  184DOPC   C1325259   2.354   1.971   1.209  0.6234  0.7719  0.2144
  184DOPC  H13A25260   2.350   1.864   1.221  1.4592  0.7328  0.1846
  184DOPC  H13B25261   2.250   1.997   1.195 -0.3044 -1.8647  1.5123
  184DOPC  H13C25262   2.414   1.977   1.120  1.3691 -2.0658  0.4400
  184DOPC   C1425263   2.571   1.988   1.302 -0.4818 -0.3679 -0.7703
  184DOPC  H14A25264   2.591   1.882   1.292 -1.4520 -0.7880  1.2308
  184DOPC  H14B25265   2.605   2.035   1.210  0.7614  2.8521  1.1577
  184DOPC  H14C25266   2.628   2.001   1.393 -1.2217 -1.5565 -0.1072
  184DOPC   C1525267   2.415   2.172   1.323  0.9030  0.8090  0.1643
  184DOPC  H15A25268   2.479   2.219   1.396  2.5126 -2.3625  0.9665
  184DOPC  H15B25269   2.310   2.192   1.342  0.8751  2.3628 -1.3586
  184DOPC  H15C25270   2.440   2.209   1.225 -0.1534 -0.3651 -0.5797
  184DOPC   C1125271   2.407   1.812   1.480 -0.5413 -0.4219  0.5822
  184DOPC  H11A25272   2.514   1.780   1.483 -0.0045  1.2240  0.4488
  184DOPC  H11B25273   2.376   1.787   1.583  0.4765 -0.1960  0.9628
  184DOPC     P25274   2.320   1.587   1.394 -0.0068 -0.2699  0.4087
  184DOPC   O1325275   2.454   1.542   1.348 -0.1447  0.3691 -0.5230
  184DOPC   O1425276   2.201   1.534   1.327 -0.0604 -0.2517 -0.1862
  184DOPC   O1225277   2.334   1.740   1.386  0.1086  0.4894 -0.5157
  184DOPC   O1125278   2.308   1.563   1.549 -0.4086 -0.0013 -0.2180
  184DOPC    C125279   2.196   1.495   1.605 -0.4448  0.3202  0.2300
  184DOPC    HA25280   2.224   1.387   1.597  3.7593  1.1619  1.1070
  184DOPC    HB25281   2.108   1.518   1.542 -0.4842  0.7507  0.4442
  184DOPC    C225282   2.156   1.525   1.749 -0.1083 -0.3470  0.1778
  184DOPC    HS25283   2.055   1.479   1.760  0.2893 -1.2948 -0.0725
  184DOPC   O2125284   2.164   1.668   1.780 -0.9225  0.0558  0.6626
  184DOPC   C2125285   2.085   1.752   1.710  0.3340  0.3643  0.0524
  184DOPC   O2225286   1.999   1.724   1.626 -0.4441  0.0505  0.3716
  184DOPC   C2225287   2.117   1.891   1.754 -0.1637  0.0874  0.2735
  184DOPC   H2R25288   2.215   1.927   1.716 -0.0640 -1.8445 -1.4417
  184DOPC   H2S25289   2.140   1.895   1.863  2.1155  2.3191 -0.1929
  184DOPC    C325290   2.250   1.460   1.858  0.1509 -0.0671 -0.8358
  184DOPC    HX25291   2.358   1.479   1.845  0.2382  0.2471  0.2791
  184DOPC    HY25292   2.225   1.352   1.850 -0.1525 -0.0567 -0.0911
  184DOPC   O3125293   2.205   1.501   1.995  0.4193  0.2346 -0.2675
  184DOPC   C3125294   2.293   1.558   2.065  0.3138  0.1436 -1.3143
  184DOPC   O3225295   2.411   1.585   2.033 -0.0887  0.0253 -0.2680
  184DOPC   C3225296   2.231   1.590   2.202 -0.0180  0.0123 -0.1813
  184DOPC   H2X25297   2.175   1.499   2.233  1.5676 -0.8863  0.1304
  184DOPC   H2Y25298   2.314   1.610   2.273 -0.6612  0.1440  0.5549
  184DOPC   C2325299   1.998   1.995   1.721 -0.2084 -0.1908 -0.3284
  184DOPC   H3R25300   1.954   1.965   1.624 -3.3914  1.2888  0.5295
  184DOPC   H3S25301   2.038   2.098   1.709 -0.2496 -0.1122  0.1725
  184DOPC   C2425302   1.885   2.003   1.821 -0.8679  0.0052 -0.0406
  184DOPC   H4R25303   1.850   1.902   1.850  0.9806 -1.2163 -1.7708
  184DOPC   H4S25304   1.798   2.058   1.777 -1.3087 -1.8411 -1.6338
  184DOPC   C2525305   1.919   2.070   1.960  0.2466  0.4691  0.0945
  184DOPC   H5R25306   1.935   2.178   1.939 -0.2327  0.3642 -0.8537
  184DOPC   H5S25307   2.011   2.026   2.004  0.8891  1.2555 -0.4399
  184DOPC   C2625308   1.808   2.055   2.059  0.2340  0.5577 -0.7345
  184DOPC   H6R25309   1.783   1.950   2.083  0.2020  0.9682  1.1906
  184DOPC   H6S25310   1.721   2.098   2.005 -0.1983  0.2347 -0.3063
  184DOPC   C2725311   1.831   2.121   2.194 -0.1928 -0.6854  1.5109
  184DOPC   H7R25312   1.838   2.231   2.181 -2.5204 -0.6777 -0.2511
  184DOPC   H7S25313   1.923   2.082   2.243 -0.0671 -0.1067  1.7440
  184DOPC   C2825314   1.716   2.095   2.293 -0.3344  0.8777  0.6757
  184DOPC   H8R25315   1.717   1.990   2.329  2.0886  0.5790 -0.0661
  184DOPC   H8S25316   1.620   2.112   2.240  0.2949 -0.7757 -1.1342
  184DOPC   C2925317   1.730   2.179   2.416 -0.5073 -0.2125  0.1696
  184DOPC   H9R25318   1.768   2.279   2.390  2.3190 -1.6602 -1.8206
  184DOPC  C21025319   1.726   2.135   2.542  0.5477 -0.2397  0.5101
  184DOPC  H10R25320   1.741   2.212   2.619 -0.2503  0.3731  0.0632
  184DOPC  C21125321   1.708   2.003   2.608  0.4204 -0.2093  0.7812
  184DOPC  H11R25322   1.778   1.981   2.692 -0.7616 -1.8126  1.4100
  184DOPC  H11S25323   1.731   1.921   2.536 -0.6130  0.1910 -0.0293
  184DOPC  C21225324   1.564   1.982   2.657  0.2526 -0.1038  0.3210
  184DOPC  H12R25325   1.561   1.880   2.702  1.2027 -0.0995  0.3968
  184DOPC  H12S25326   1.486   1.988   2.577 -1.1709 -1.0228  1.5802
  184DOPC  C21325327   1.534   2.079   2.763 -0.4343 -0.4366 -0.2740
  184DOPC  H13R25328   1.537   2.186   2.732  0.9755 -0.3638  0.0347
  184DOPC  H13S25329   1.602   2.055   2.848  0.1573 -3.6598 -1.5032
  184DOPC  C21425330   1.393   2.049   2.820 -0.2380 -0.1416  0.8620
  184DOPC  H14R25331   1.377   1.939   2.833  0.4089 -0.2426  0.8374
  184DOPC  H14S25332   1.321   2.087   2.745 -1.4433  1.8832  2.9404
  184DOPC  C21525333   1.359   2.126   2.946  0.2340 -0.1136 -0.0264
  184DOPC  H15R25334   1.361   2.233   2.916 -1.5087 -0.5314 -1.8174
  184DOPC  H15S25335   1.442   2.098   3.014  1.2314 -0.0025 -1.1630
  184DOPC  C21625336   1.222   2.089   3.010  0.1995  0.2361  0.3502
  184DOPC  H16R25337   1.216   1.987   3.053 -1.5581  0.6054  1.0472
  184DOPC  H16S25338   1.138   2.091   2.937 -0.4105 -1.7056  0.9257
  184DOPC  C21725339   1.193   2.189   3.125 -0.6316  0.3771  0.1049
  184DOPC  H17R25340   1.271   2.269   3.129  1.4567 -1.1826 -3.8313
  184DOPC  H17S25341   1.200   2.135   3.222  0.7505  0.0737 -0.1442
  184DOPC  C21825342   1.056   2.254   3.115 -0.0162  0.2725 -0.3657
  184DOPC  H18R25343   1.048   2.317   3.206  2.4976 -1.5959  1.2967
  184DOPC  H18S25344   0.968   2.187   3.114 -1.3859  1.9950 -1.6310
  184DOPC  H18T25345   1.062   2.307   3.017  6.8205 -0.8282 -1.0653
  184DOPC   C3325346   2.148   1.724   2.195  0.7087  0.2610 -0.2047
  184DOPC   H3X25347   2.058   1.690   2.139  0.1239  0.5674  0.5288
  184DOPC   H3Y25348   2.199   1.796   2.129  2.3600 -2.6870 -2.3814
  184DOPC   C3425349   2.091   1.783   2.329 -0.6508  0.2916  0.2566
  184DOPC   H4X25350   2.059   1.696   2.391 -2.4025 -0.2516 -1.3283
  184DOPC   H4Y25351   2.001   1.847   2.320  0.8226  2.3177 -1.0563
  184DOPC   C3525352   2.195   1.861   2.418 -0.0145 -0.3751 -0.0581
  184DOPC   H5X25353   2.231   1.943   2.353 -0.9896  0.2999  0.2415
  184DOPC   H5Y25354   2.280   1.793   2.443  1.7982  0.8955 -2.3684
  184DOPC   C3625355   2.143   1.923   2.544  0.3866  0.5820  0.1849
  184DOPC   H6X25356   2.054   1.984   2.516  0.5989  0.3427 -1.0557
  184DOPC   H6Y25357   2.108   1.841   2.611  1.9274 -1.9304 -1.8503
  184DOPC   C3725358   2.242   2.008   2.622 -0.3238 -0.4414 -0.0725
  184DOPC   H7X25359   2.339   1.960   2.646  0.0720  0.4597  0.1394
  184DOPC   H7Y25360   2.266   2.098   2.562  1.9899  0.3753  1.9382
  184DOPC   C3825361   2.190   2.080   2.753 -0.2011  0.5106 -0.4695
  184DOPC   H8X25362   2.106   2.145   2.721 -1.0933  0.1932  1.1511
  184DOPC   H8Y25363   2.281   2.137   2.781  1.4077 -2.4801  0.8961
  184DOPC   C3925364   2.140   1.986   2.863  0.2944 -0.1049 -0.2987
  184DOPC   H9X25365   2.040   1.949   2.837  0.9765 -0.2622 -3.0061
  184DOPC  C31025366   2.203   1.946   2.971  0.7020  0.5211 -0.0818
  184DOPC  H10X25367   2.140   1.882   3.034  0.1283  0.5219 -0.6397
  184DOPC  C31125368   2.336   1.980   3.027 -0.7990 -0.0694 -0.1697
  184DOPC  H11X25369   2.402   2.032   2.954  0.2940 -0.3222  0.6190
  184DOPC  H11Y25370   2.391   1.887   3.053 -0.1671  1.4361  5.0240
  184DOPC  C31225371   2.321   2.063   3.150  0.2895 -0.3362 -0.1968
  184DOPC  H12X25372   2.283   2.165   3.126 -2.1472 -0.2612  3.2400
  184DOPC  H12Y25373   2.420   2.087   3.195 -0.6420  1.9026  0.8230
  184DOPC  C31325374   2.228   2.007   3.260  0.3951  0.4018 -0.2400
  184DOPC  H13X25375   2.128   1.986   3.216  1.4072  0.3189 -2.7210
  184DOPC  H13Y25376   2.269   1.913   3.303  1.2685  1.4978  1.3813
  184DOPC  C31425377   2.185   2.103   3.365 -0.5323  0.5894 -0.0095
  184DOPC  H14X25378   2.159   2.201   3.319  0.4959 -0.1149 -2.2217
  184DOPC  H14Y25379   2.094   2.063   3.416  1.1080 -2.0338  1.0713
  184DOPC  C31525380   2.293   2.132   3.475 -0.1540 -0.1664  0.3108
  184DOPC  H15X25381   2.269   2.214   3.546  1.4499  0.2978  0.3697
  184DOPC  H15Y25382   2.393   2.141   3.427  1.3628 -1.6221  2.9299
  184DOPC  C31625383   2.293   2.023   3.581  0.0329  0.3020  0.6801
  184DOPC  H16X25384   2.207   2.022   3.652 -0.5611  0.2277 -0.0335
  184DOPC  H16Y25385   2.299   1.927   3.525  0.2737 -0.0002  1.2098
  184DOPC  C31725386   2.417   2.034   3.670 -0.1867  0.1309 -0.0364
  184DOPC  H17X25387   2.424   1.942   3.731  1.1933  1.1566  1.4284
  184DOPC  H17Y25388   2.500   2.018   3.596  0.3855 -0.7829  0.7788
  184DOPC  C31825389   2.442   2.161   3.756 -0.5163  0.3523 -0.0759
  184DOPC  H18X25390   2.497   2.140   3.850 -0.4800 -0.9209 -0.3589
  184DOPC  H18Y25391   2.485   2.242   3.694 -1.9035  0.4891 -0.9076
  184DOPC  H18Z25392   2.343   2.190   3.797  0.1162  2.9712 -0.2281
  185DOPC     N25393   7.333   4.235   1.449  0.3843 -0.7440 -0.8021
  185DOPC   C1225394   7.304   4.226   1.600  0.1407 -0.0834  0.6089
  185DOPC  H12A25395   7.222   4.163   1.629  0.2632 -0.2960  0.4969
  185DOPC  H12B25396   7.277   4.324   1.637 -2.7995 -0.0820 -1.2501
  185DOPC   C1325397   7.382   4.107   1.392  0.0805 -0.2245  0.2731
  185DOPC  H13A25398   7.302   4.036   1.405 -0.6815  0.9625  2.8201
  185DOPC  H13B25399   7.395   4.121   1.286  2.3168  0.2880  0.5628
  185DOPC  H13C25400   7.467   4.063   1.443 -0.2213 -0.4222  0.6121
  185DOPC   C1425401   7.433   4.340   1.431 -0.4735  0.0255  0.1255
  185DOPC  H14A25402   7.452   4.349   1.325 -1.2519  0.8524  0.0364
  185DOPC  H14B25403   7.395   4.439   1.455  0.2534 -0.1783  2.3028
  185DOPC  H14C25404   7.523   4.323   1.487 -1.7024 -1.0478  1.8578
  185DOPC   C1525405   7.212   4.288   1.380  0.0899  0.1884 -0.2323
  185DOPC  H15A25406   7.187   4.386   1.416 -0.4722 -0.8369  2.4663
  185DOPC  H15B25407   7.118   4.235   1.390 -0.7054  1.4744 -0.7715
  185DOPC  H15C25408   7.228   4.290   1.274  2.7134 -0.6539  0.0775
  185DOPC   C1125409   7.422   4.173   1.692  0.9543 -0.9099 -0.0829
  185DOPC  H11A25410   7.381   4.182   1.795 -1.3380 -1.5130 -0.8757
  185DOPC  H11B25411   7.432   4.065   1.667 -2.3258 -0.7138 -3.1513
  185DOPC     P25412   7.563   4.399   1.751 -0.1181  0.3268  0.2812
  185DOPC   O1325413   7.440   4.483   1.761 -0.7541  0.3686 -0.3557
  185DOPC   O1425414   7.678   4.461   1.685  0.1970 -0.1026 -0.4690
  185DOPC   O1225415   7.530   4.259   1.678 -0.1315  0.6058  0.0348
  185DOPC   O1125416   7.621   4.364   1.890  0.3807  0.0671  0.0144
  185DOPC    C125417   7.671   4.240   1.938 -0.6754  0.0662  0.9660
  185DOPC    HA25418   7.776   4.247   1.973 -0.3460 -2.1137  0.5240
  185DOPC    HB25419   7.673   4.170   1.852 -1.8696  2.9638 -1.6154
  185DOPC    C225420   7.583   4.189   2.049  0.5103  0.1093  0.1873
  185DOPC    HS25421   7.639   4.121   2.118  0.7521  1.2384  1.1408
  185DOPC   O2125422   7.459   4.129   2.006  0.6718 -0.5966  0.2718
  185DOPC   C2125423   7.455   3.998   1.984 -0.2164 -0.6908 -0.0835
  185DOPC   O2225424   7.553   3.927   1.984 -0.1187 -0.4377  0.6404
  185DOPC   C2225425   7.315   3.939   1.979 -0.2263 -0.1669  0.7968
  185DOPC   H2R25426   7.279   3.938   1.874 -0.4449  2.7390  0.7569
  185DOPC   H2S25427   7.239   4.012   2.015 -0.8650  0.4805 -1.6794
  185DOPC    C325428   7.543   4.295   2.153 -0.0872  0.3976 -0.2591
  185DOPC    HX25429   7.448   4.347   2.128 -1.5472 -1.4562  1.0985
  185DOPC    HY25430   7.623   4.372   2.142  0.9501 -0.9228 -2.9010
  185DOPC   O3125431   7.514   4.239   2.286  0.3981  0.4311  0.1860
  185DOPC   C3125432   7.535   4.336   2.382  0.0968  0.1628 -1.2093
  185DOPC   O3225433   7.562   4.450   2.353 -0.6152 -0.0427 -0.0838
  185DOPC   C3225434   7.539   4.267   2.516 -0.5256 -1.4110  0.2505
  185DOPC   H2X25435   7.433   4.243   2.539 -0.8662 -0.8320 -0.6659
  185DOPC   H2Y25436   7.600   4.175   2.506 -0.7133 -1.4666 -0.4273
  185DOPC   C2325437   7.304   3.812   2.053  0.2689  0.1434 -0.0777
  185DOPC   H3R25438   7.394   3.747   2.041  1.6054  1.5485  1.7742
  185DOPC   H3S25439   7.216   3.752   2.021 -0.8626  0.7023  1.8517
  185DOPC   C2425440   7.284   3.831   2.204 -0.5945  0.4755  0.1585
  185DOPC   H4R25441   7.289   3.725   2.237 -2.5704 -0.2685 -1.6847
  185DOPC   H4S25442   7.177   3.855   2.219 -0.9296 -0.9109  0.1024
  185DOPC   C2525443   7.371   3.931   2.272 -0.0386 -0.0190 -0.4218
  185DOPC   H5R25444   7.356   4.034   2.233 -1.2276 -0.0242 -0.0147
  185DOPC   H5S25445   7.477   3.909   2.248  0.5992  2.1180  0.2107
  185DOPC   C2625446   7.361   3.938   2.429  0.1428 -0.4333  0.5528
  185DOPC   H6R25447   7.424   4.026   2.454  0.1070 -0.4839  0.8274
  185DOPC   H6S25448   7.380   3.842   2.482 -0.8662 -1.2514 -0.4928
  185DOPC   C2725449   7.217   3.987   2.468 -1.1121  0.2391 -0.8043
  185DOPC   H7R25450   7.151   3.898   2.457 -0.6239  0.0028 -1.9439
  185DOPC   H7S25451   7.178   4.072   2.408 -0.0813  0.9933 -0.4308
  185DOPC   C2825452   7.202   4.024   2.619  0.4574  0.2876 -0.8717
  185DOPC   H8R25453   7.095   4.039   2.647  0.1932 -0.3147 -1.5132
  185DOPC   H8S25454   7.256   4.120   2.630  1.1548 -0.2571  0.8995
  185DOPC   C2925455   7.277   3.921   2.710 -0.2958 -0.0593 -0.3180
  185DOPC   H9R25456   7.385   3.913   2.690  0.2426 -0.9432  2.4319
  185DOPC  C21025457   7.226   3.846   2.803 -0.0588 -0.0246  0.4038
  185DOPC  H10R25458   7.294   3.789   2.868 -1.0743  0.0950  1.5996
  185DOPC  C21125459   7.084   3.817   2.831 -0.0059  0.0131 -0.3652
  185DOPC  H11R25460   7.012   3.864   2.761  2.8621  3.1124 -1.5204
  185DOPC  H11S25461   7.060   3.876   2.922 -1.9151 -0.2140 -0.6825
  185DOPC  C21225462   7.074   3.670   2.868 -0.1171  0.2103  0.3025
  185DOPC  H12R25463   7.162   3.641   2.930  0.8550  2.5034  0.1264
  185DOPC  H12S25464   7.069   3.605   2.778  1.1451 -0.3154  0.5842
  185DOPC  C21325465   6.958   3.645   2.967  0.1496  0.0139  0.0886
  185DOPC  H13R25466   6.939   3.536   2.979 -0.5182  0.0381 -0.6323
  185DOPC  H13S25467   6.862   3.688   2.930 -0.4115 -0.5474  0.8675
  185DOPC  C21425468   6.978   3.707   3.108 -0.1584 -0.1829 -0.0724
  185DOPC  H14R25469   6.997   3.816   3.098 -1.3495  0.0258 -0.2917
  185DOPC  H14S25470   7.055   3.648   3.161 -2.4213 -2.5721  0.7958
  185DOPC  C21525471   6.846   3.708   3.194 -0.2999  0.0138 -0.2848
  185DOPC  H15R25472   6.776   3.782   3.148 -1.3366 -0.8547 -0.1561
  185DOPC  H15S25473   6.870   3.744   3.296 -1.2355  0.5549 -0.2395
  185DOPC  C21625474   6.783   3.570   3.203  0.5003 -0.0570  0.2966
  185DOPC  H16R25475   6.861   3.498   3.236 -0.4905 -1.1416  0.3472
  185DOPC  H16S25476   6.739   3.535   3.107  3.2262  0.6478 -1.3254
  185DOPC  C21725477   6.679   3.554   3.319 -0.1626 -0.9003  0.3597
  185DOPC  H17R25478   6.662   3.446   3.337  0.4918 -1.1212 -0.2829
  185DOPC  H17S25479   6.583   3.606   3.301  0.7950  1.2473  1.1198
  185DOPC  C21825480   6.719   3.610   3.460  0.4368 -0.2739  0.0456
  185DOPC  H18R25481   6.657   3.560   3.538 -1.2354  1.9063  0.2049
  185DOPC  H18S25482   6.709   3.720   3.470  3.4926  0.2398 -1.2701
  185DOPC  H18T25483   6.826   3.589   3.481  0.6664  0.9704  0.1845
  185DOPC   C3325484   7.614   4.354   2.627  0.8932 -0.0753  0.5935
  185DOPC   H3X25485   7.591   4.459   2.600  3.3334  0.0621 -1.2870
  185DOPC   H3Y25486   7.723   4.334   2.621  0.6710 -1.6919  1.3148
  185DOPC   C3425487   7.568   4.333   2.768  0.9968 -0.0005 -0.2102
  185DOPC   H4X25488   7.458   4.343   2.780  0.4501 -1.2395 -3.1720
  185DOPC   H4Y25489   7.620   4.408   2.830  0.5562 -0.2087  0.4193
  185DOPC   C3525490   7.605   4.197   2.823 -0.1794 -0.0304  0.1730
  185DOPC   H5X25491   7.716   4.188   2.826 -0.1790  0.1166  0.5475
  185DOPC   H5Y25492   7.568   4.123   2.748 -0.8029 -0.7750  1.2012
  185DOPC   C3625493   7.539   4.147   2.950 -0.3479  0.7137 -0.0148
  185DOPC   H6X25494   7.566   4.213   3.035 -1.1296 -0.5122  1.2250
  185DOPC   H6Y25495   7.428   4.143   2.945 -0.4005  1.7103  0.2310
  185DOPC   C3725496   7.590   4.007   2.984 -0.3323  0.9177 -0.0494
  185DOPC   H7X25497   7.558   3.940   2.901 -0.5131 -0.5395  1.1668
  185DOPC   H7Y25498   7.701   4.007   2.986 -0.3271  0.7120  1.8852
  185DOPC   C3825499   7.553   3.953   3.120 -1.2083  0.4761 -0.4911
  185DOPC   H8X25500   7.584   4.027   3.196  0.3491 -0.5561 -0.0606
  185DOPC   H8Y25501   7.625   3.872   3.144 -0.9098  1.2012  1.1770
  185DOPC   C3925502   7.411   3.916   3.129 -0.1085  0.3359  0.6100
  185DOPC   H9X25503   7.344   4.004   3.133 -0.2083  0.2838  0.1230
  185DOPC  C31025504   7.363   3.799   3.181  0.3664 -0.5426  0.3340
  185DOPC  H10X25505   7.254   3.795   3.195  0.2656 -2.4734 -0.6610
  185DOPC  C31125506   7.445   3.679   3.232  0.6771  0.0331  0.1124
  185DOPC  H11X25507   7.519   3.704   3.311 -0.8413  1.2624  1.2052
  185DOPC  H11Y25508   7.504   3.641   3.145  0.4193  3.6847 -1.8402
  185DOPC  C31225509   7.355   3.572   3.293 -0.3081  0.6568  0.2471
  185DOPC  H12X25510   7.416   3.486   3.329 -3.1972 -1.0004  1.4898
  185DOPC  H12Y25511   7.291   3.524   3.215  0.8605  0.8648 -0.8800
  185DOPC  C31325512   7.277   3.603   3.422  0.2710 -0.5352 -0.1239
  185DOPC  H13X25513   7.337   3.662   3.495  0.6782  1.3085 -1.8507
  185DOPC  H13Y25514   7.194   3.669   3.391  1.1564  0.9050  0.4357
  185DOPC  C31425515   7.216   3.483   3.491 -0.1699 -1.4526  0.4380
  185DOPC  H14X25516   7.148   3.422   3.429 -0.5358  0.1062 -0.7635
  185DOPC  H14Y25517   7.305   3.425   3.523 -1.5421 -1.4161  4.8963
  185DOPC  C31525518   7.134   3.514   3.620 -0.1909  0.1925 -0.8219
  185DOPC  H15X25519   7.083   3.421   3.655  2.4365 -2.0250 -2.4003
  185DOPC  H15Y25520   7.055   3.586   3.590 -1.0142 -0.8007 -1.1145
  185DOPC  C31625521   7.225   3.569   3.730  0.3618 -0.4150 -0.3805
  185DOPC  H16X25522   7.312   3.502   3.749 -0.2016 -0.6972  1.4226
  185DOPC  H16Y25523   7.257   3.669   3.695 -2.7024  1.0829  0.7597
  185DOPC  C31725524   7.166   3.585   3.874  0.2683  0.3025  0.0714
  185DOPC  H17X25525   7.092   3.506   3.898 -0.3343  1.6605  3.0947
  185DOPC  H17Y25526   7.245   3.580   3.952 -0.5874  0.4226  0.9647
  185DOPC  C31825527   7.093   3.720   3.891  0.8518  0.7221  1.1113
  185DOPC  H18X25528   7.164   3.804   3.872 -1.5239  2.2262 -1.8831
  185DOPC  H18Y25529   7.018   3.734   3.810  1.4419 -1.2328  0.1550
  185DOPC  H18Z25530   7.045   3.721   3.991 -0.6974 -1.1464  0.4383
  186DOPC     N25531   2.481   3.435   0.943 -0.1041 -0.1227 -0.3024
  186DOPC   C1225532   2.481   3.332   1.052 -0.1297  0.0648 -0.1759
  186DOPC  H12A25533   2.583   3.299   1.064 -0.5597 -0.5218  2.5669
  186DOPC  H12B25534   2.422   3.250   1.014  0.7590 -0.5361 -0.3129
  186DOPC   C1325535   2.548   3.379   0.814  0.7234  0.5884 -0.0878
  186DOPC  H13A25536   2.529   3.273   0.810 -1.4770  0.8988  0.7205
  186DOPC  H13B25537   2.521   3.420   0.717  2.0367 -1.5301 -1.4343
  186DOPC  H13C25538   2.654   3.396   0.815  1.1029 -0.9016 -2.9279
  186DOPC   C1425539   2.557   3.564   0.986  0.6101  0.1162  0.3193
  186DOPC  H14A25540   2.663   3.549   1.006  0.6901  1.4247  0.9998
  186DOPC  H14B25541   2.543   3.636   0.908  1.5118  0.0870  0.1161
  186DOPC  H14C25542   2.513   3.614   1.071  0.8264  0.1467  0.4159
  186DOPC   C1525543   2.341   3.475   0.914  0.5440 -0.6950  0.5701
  186DOPC  H15A25544   2.335   3.555   0.843  1.7843 -1.1440 -0.0645
  186DOPC  H15B25545   2.291   3.508   1.004  0.5597 -1.2879  0.8007
  186DOPC  H15C25546   2.276   3.399   0.874 -0.9112  0.9360 -0.2892
  186DOPC   C1125547   2.423   3.359   1.194  0.3308 -0.4458 -0.0140
  186DOPC  H11A25548   2.426   3.267   1.255 -1.5938  0.3051  1.3293
  186DOPC  H11B25549   2.488   3.423   1.257 -0.5322 -1.1379  1.6513
  186DOPC     P25550   2.164   3.303   1.187  0.1988  0.0355 -0.4201
  186DOPC   O1325551   2.187   3.211   1.073 -0.6980  0.2304  0.6844
  186DOPC   O1425552   2.034   3.376   1.193 -0.3624 -0.3833  0.0304
  186DOPC   O1225553   2.287   3.407   1.192  0.2338 -0.1762  0.4407
  186DOPC   O1125554   2.190   3.230   1.326  0.0019  0.5244 -0.0398
  186DOPC    C125555   2.184   3.312   1.446  0.0689  0.5220  0.5044
  186DOPC    HA25556   2.154   3.416   1.423 -0.7751  0.1920  0.0576
  186DOPC    HB25557   2.276   3.303   1.508 -0.0551 -1.8364  0.4321
  186DOPC    C225558   2.064   3.265   1.529  0.4642 -0.0965 -0.0315
  186DOPC    HS25559   2.003   3.212   1.453 -1.1040  1.2824  0.2033
  186DOPC   O2125560   2.000   3.381   1.589 -0.4928 -0.1836 -0.1626
  186DOPC   C2125561   1.871   3.372   1.599  0.2707 -0.4305  0.6653
  186DOPC   O2225562   1.805   3.291   1.538 -0.3365 -0.3698 -0.1487
  186DOPC   C2225563   1.821   3.489   1.692 -0.6404  0.3240  0.4386
  186DOPC   H2R25564   1.742   3.552   1.644 -1.1142 -0.1485  0.5897
  186DOPC   H2S25565   1.901   3.559   1.723  1.1437 -1.6214  0.4330
  186DOPC    C325566   2.104   3.169   1.644 -0.4169  0.2392  0.0029
  186DOPC    HX25567   2.170   3.233   1.706  0.9535 -0.4305 -0.6914
  186DOPC    HY25568   2.168   3.081   1.616 -0.8882 -0.4111  0.9289
  186DOPC   O3125569   2.000   3.137   1.735  0.6984 -0.2184  0.1289
  186DOPC   C3125570   1.955   3.014   1.727  0.1940  0.7394  0.2548
  186DOPC   O3225571   2.003   2.925   1.662 -0.0351 -0.1786 -0.1944
  186DOPC   C3225572   1.824   3.010   1.806 -0.1218  0.0618  0.4403
  186DOPC   H2X25573   1.752   3.086   1.768 -1.0315 -1.2116 -0.5097
  186DOPC   H2Y25574   1.789   2.908   1.776  3.9183 -1.6351  0.8806
  186DOPC   C2325575   1.766   3.432   1.828 -0.0005 -0.4558  0.5998
  186DOPC   H3R25576   1.835   3.358   1.873  0.9039 -0.2748 -0.4583
  186DOPC   H3S25577   1.664   3.388   1.830 -0.2797  0.1738  0.4849
  186DOPC   C2425578   1.755   3.553   1.924  0.2536 -0.2147  0.3950
  186DOPC   H4R25579   1.673   3.623   1.898 -0.9518 -2.1528 -1.3187
  186DOPC   H4S25580   1.850   3.610   1.935 -0.9433  1.5435  2.5291
  186DOPC   C2525581   1.730   3.492   2.065  0.4681  0.4064 -0.3721
  186DOPC   H5R25582   1.820   3.431   2.090  1.0063  1.1276 -0.5389
  186DOPC   H5S25583   1.639   3.429   2.049  0.7312 -0.1045  0.0961
  186DOPC   C2625584   1.702   3.592   2.172  0.0771  0.1569 -0.5012
  186DOPC   H6R25585   1.620   3.662   2.148 -2.1229 -1.4358  1.8646
  186DOPC   H6S25586   1.794   3.655   2.177  2.0131 -2.4274 -1.2777
  186DOPC   C2725587   1.673   3.548   2.316 -0.7945  0.4211  0.3202
  186DOPC   H7R25588   1.738   3.458   2.326 -1.8252 -0.8588 -2.9772
  186DOPC   H7S25589   1.570   3.508   2.327 -0.6923  0.0810  0.0471
  186DOPC   C2825590   1.700   3.672   2.408  0.6865 -0.7385 -0.0530
  186DOPC   H8R25591   1.615   3.744   2.403  1.1287 -0.2379 -0.6322
  186DOPC   H8S25592   1.792   3.727   2.378  0.0413  0.2039 -0.3568
  186DOPC   C2925593   1.715   3.638   2.554 -0.0306 -0.5670 -0.4079
  186DOPC   H9R25594   1.790   3.562   2.580  1.2851  1.5304  2.4864
  186DOPC  C21025595   1.652   3.680   2.660  0.5154  0.3621  0.3406
  186DOPC  H10R25596   1.685   3.642   2.757 -0.4263 -3.2402 -0.5991
  186DOPC  C21125597   1.547   3.773   2.668  0.5055 -0.3649 -0.4001
  186DOPC  H11R25598   1.544   3.844   2.583  1.3838  0.7507  0.4732
  186DOPC  H11S25599   1.549   3.837   2.758  0.1746  1.3152 -1.5371
  186DOPC  C21225600   1.417   3.702   2.673  0.7399 -0.0644 -0.4383
  186DOPC  H12R25601   1.401   3.636   2.585 -0.4140  0.5360 -0.6999
  186DOPC  H12S25602   1.337   3.780   2.671 -1.1895 -1.8293  2.0571
  186DOPC  C21325603   1.390   3.622   2.800 -0.4460  0.3375 -1.0355
  186DOPC  H13R25604   1.477   3.554   2.816 -0.0762  0.8449 -0.8301
  186DOPC  H13S25605   1.303   3.555   2.786 -0.7182  0.1743  1.1823
  186DOPC  C21425606   1.348   3.702   2.922  0.4935 -0.2490 -0.2060
  186DOPC  H14R25607   1.274   3.781   2.896 -2.2944 -2.0119  1.8122
  186DOPC  H14S25608   1.446   3.747   2.949  0.2919  1.3439 -1.8922
  186DOPC  C21525609   1.294   3.617   3.042 -0.7851  0.2475 -0.0399
  186DOPC  H15R25610   1.295   3.686   3.129 -2.8452 -1.2806  1.2946
  186DOPC  H15S25611   1.370   3.538   3.062  1.3866  1.4705 -2.7303
  186DOPC  C21625612   1.152   3.561   3.020 -0.4501  0.1342 -0.3867
  186DOPC  H16R25613   1.139   3.498   2.929 -1.4489  2.5352 -1.9998
  186DOPC  H16S25614   1.079   3.642   3.002 -0.4036  0.3332  0.2806
  186DOPC  C21725615   1.086   3.505   3.147  0.1483  0.4042  0.4439
  186DOPC  H17R25616   1.130   3.408   3.178 -1.1362  0.2882  2.0160
  186DOPC  H17S25617   0.988   3.473   3.105  0.9372 -1.4759 -0.0680
  186DOPC  C21825618   1.078   3.602   3.265 -0.0231  0.1166 -0.6231
  186DOPC  H18R25619   1.177   3.637   3.300 -0.2182  0.1014 -0.0401
  186DOPC  H18S25620   1.030   3.549   3.350  0.0773 -0.6179 -1.0208
  186DOPC  H18T25621   1.019   3.696   3.255  2.1009  1.7554  1.2584
  186DOPC   C3325622   1.832   3.026   1.964 -0.2791  0.3476  0.6071
  186DOPC   H3X25623   1.735   3.072   1.993 -1.2031 -1.2547  0.1890
  186DOPC   H3Y25624   1.918   3.093   1.984  0.4900 -0.4098 -0.0610
  186DOPC   C3425625   1.839   2.890   2.032  0.2667  0.0969  0.0046
  186DOPC   H4X25626   1.907   2.816   1.984 -2.1210 -2.0375 -0.3103
  186DOPC   H4Y25627   1.736   2.850   2.034  0.2674  0.1261  1.0610
  186DOPC   C3525628   1.889   2.906   2.180  0.3777  0.3865 -0.0686
  186DOPC   H5X25629   1.846   2.812   2.222  0.5328  0.1071 -0.5331
  186DOPC   H5Y25630   1.849   2.998   2.229  0.3371  0.8817 -1.0184
  186DOPC   C3625631   2.039   2.901   2.198  0.8486  0.4494  0.1546
  186DOPC   H6X25632   2.073   2.797   2.184  0.8997  0.5855 -0.7707
  186DOPC   H6Y25633   2.091   2.962   2.121  0.7280 -0.2228 -0.4702
  186DOPC   C3725634   2.090   2.964   2.328 -0.2715  0.8223  0.8869
  186DOPC   H7X25635   2.034   3.058   2.345  0.6767  1.9210 -1.6573
  186DOPC   H7Y25636   2.060   2.899   2.414 -0.7364  1.7114  1.4056
  186DOPC   C3825637   2.240   2.993   2.333 -0.6179 -0.0867  0.4213
  186DOPC   H8X25638   2.274   3.051   2.244 -0.7198 -2.2453 -1.1151
  186DOPC   H8Y25639   2.284   2.891   2.333 -1.1662 -0.3279  0.3446
  186DOPC   C3925640   2.279   3.053   2.462  0.3436  0.3810  0.2640
  186DOPC   H9X25641   2.248   3.154   2.491  1.7646  0.8575  0.2343
  186DOPC  C31025642   2.366   3.007   2.555  0.3839 -0.5341 -0.0543
  186DOPC  H10X25643   2.380   3.072   2.643  2.1453 -2.3398  1.0901
  186DOPC  C31125644   2.450   2.883   2.558 -0.2282 -0.2417  0.2957
  186DOPC  H11X25645   2.549   2.915   2.520 -1.3334  1.4862 -1.3137
  186DOPC  H11Y25646   2.405   2.811   2.486 -2.8110  0.4857  1.0602
  186DOPC  C31225647   2.454   2.812   2.692  0.5284 -0.0871 -0.1637
  186DOPC  H12X25648   2.477   2.882   2.776 -0.1148  1.2401 -1.0545
  186DOPC  H12Y25649   2.524   2.726   2.694  1.8058  0.9199  0.6731
  186DOPC  C31325650   2.319   2.751   2.716  0.0081 -0.3811 -0.1780
  186DOPC  H13X25651   2.246   2.835   2.724 -0.1973 -0.6404  0.9050
  186DOPC  H13Y25652   2.309   2.687   2.626  0.6094  0.0306 -0.5434
  186DOPC  C31425653   2.318   2.656   2.840  0.2106 -0.4372 -0.3066
  186DOPC  H14X25654   2.223   2.600   2.825 -2.0577  2.6350  1.5104
  186DOPC  H14Y25655   2.396   2.576   2.835  0.9334  0.2867 -0.9138
  186DOPC  C31525656   2.333   2.735   2.969  0.1271 -0.4811 -0.6903
  186DOPC  H15X25657   2.262   2.821   2.964 -0.1119 -0.6951 -1.0180
  186DOPC  H15Y25658   2.433   2.784   2.965 -1.1664  2.4082 -0.6510
  186DOPC  C31625659   2.317   2.649   3.100 -0.0579  0.0272  0.9543
  186DOPC  H16X25660   2.362   2.718   3.174  1.6490  1.9951 -1.7482
  186DOPC  H16Y25661   2.209   2.636   3.126 -0.1791  1.1790  1.0867
  186DOPC  C31725662   2.392   2.508   3.114  0.3688 -0.3889 -0.5104
  186DOPC  H17X25663   2.350   2.433   3.044 -0.4683 -2.9662  2.5364
  186DOPC  H17Y25664   2.497   2.534   3.093 -0.3939  3.2583 -0.5241
  186DOPC  C31825665   2.378   2.444   3.247 -0.1001 -0.2470 -0.3840
  186DOPC  H18X25666   2.272   2.442   3.280  0.0757  0.9374  0.2921
  186DOPC  H18Y25667   2.424   2.343   3.241  0.8853  0.1401  0.2826
  186DOPC  H18Z25668   2.438   2.497   3.324 -0.3652 -0.4038 -0.0710
  187DOPC     N25669   6.962   7.549   1.603  0.2023  0.3471 -0.1885
  187DOPC   C1225670   6.874   7.667   1.584  0.1886  0.2612  0.4987
  187DOPC  H12A25671   6.880   7.699   1.481 -0.7077 -0.0743  0.3362
  187DOPC  H12B25672   6.904   7.749   1.649  0.3795 -0.4331  1.3042
  187DOPC   C1325673   6.950   7.478   1.735  0.1097  0.7445  0.2291
  187DOPC  H13A25674   6.846   7.454   1.747  0.7282 -1.8502  1.2127
  187DOPC  H13B25675   7.007   7.386   1.735 -1.3360 -0.2705 -2.5996
  187DOPC  H13C25676   6.978   7.546   1.814 -1.3375  1.5711  0.0545
  187DOPC   C1425677   7.106   7.578   1.565  0.7759 -0.7552 -0.3570
  187DOPC  H14A25678   7.169   7.496   1.596  0.0164 -0.5910  1.8371
  187DOPC  H14B25679   7.120   7.602   1.461  2.5337 -0.6359 -0.1277
  187DOPC  H14C25680   7.145   7.669   1.610 -0.5095 -0.3736  0.0233
  187DOPC   C1525681   6.921   7.445   1.502 -0.0134 -0.7504 -0.2478
  187DOPC  H15A25682   6.941   7.484   1.403 -2.6018  0.5873 -0.3204
  187DOPC  H15B25683   6.814   7.435   1.511 -0.1325  0.3820 -0.2194
  187DOPC  H15C25684   6.976   7.353   1.515  1.8236  0.3390  0.0836
  187DOPC   C1125685   6.718   7.646   1.612 -0.0716 -0.1262 -0.0808
  187DOPC  H11A25686   6.707   7.631   1.722  0.6223 -0.5677 -0.0667
  187DOPC  H11B25687   6.666   7.744   1.607 -1.0655 -0.6298  0.0171
  187DOPC     P25688   6.577   7.415   1.578  0.3923 -0.2970 -0.0534
  187DOPC   O1325689   6.679   7.322   1.636  0.2677 -0.3279 -0.0145
  187DOPC   O1425690   6.509   7.364   1.462  0.0801 -0.2054  0.0053
  187DOPC   O1225691   6.652   7.552   1.532  0.1636 -0.3821 -0.1432
  187DOPC   O1125692   6.471   7.450   1.691 -0.5674  0.0582  0.6392
  187DOPC    C125693   6.376   7.554   1.662  0.4972  0.2300  0.8045
  187DOPC    HA25694   6.290   7.503   1.613 -0.8707  0.2985  2.9784
  187DOPC    HB25695   6.414   7.639   1.602  0.7309 -0.2320  0.2918
  187DOPC    C225696   6.319   7.626   1.800 -0.0710 -0.4427  0.6720
  187DOPC    HS25697   6.407   7.683   1.839 -0.7392 -0.1494  1.7895
  187DOPC   O2125698   6.275   7.529   1.899  0.1893  0.1349  0.1789
  187DOPC   C2125699   6.374   7.481   1.971  0.6637  0.5778 -0.0633
  187DOPC   O2225700   6.493   7.504   1.962  0.0653 -0.5001 -0.5675
  187DOPC   C2225701   6.313   7.397   2.094 -0.4690 -0.2283  0.0461
  187DOPC   H2R25702   6.296   7.295   2.052  1.6433 -1.8829  2.8431
  187DOPC   H2S25703   6.223   7.457   2.116 -0.1647  1.1267 -2.1334
  187DOPC    C325704   6.207   7.718   1.759  0.1491 -0.4796 -0.3083
  187DOPC    HX25705   6.116   7.656   1.741 -1.1691  0.7061  1.8330
  187DOPC    HY25706   6.220   7.774   1.664  1.0284 -1.7795 -0.9727
  187DOPC   O3125707   6.173   7.805   1.870 -0.5409 -0.4107  0.0894
  187DOPC   C3125708   6.238   7.914   1.869 -0.0493 -0.1390  0.4070
  187DOPC   O3225709   6.304   7.964   1.781  0.3108 -0.4068  0.3231
  187DOPC   C3225710   6.242   7.965   2.013  0.5153  0.2998  0.2866
  187DOPC   H2X25711   6.289   8.066   2.015  2.0272 -0.3797  2.9503
  187DOPC   H2Y25712   6.135   7.967   2.045 -0.8655 -0.0643 -3.7424
  187DOPC   C2325713   6.408   7.378   2.219  0.7393 -0.4316 -0.0334
  187DOPC   H3R25714   6.514   7.363   2.191  1.0103  1.5937 -0.2754
  187DOPC   H3S25715   6.364   7.288   2.267 -0.3046 -0.5827 -1.2177
  187DOPC   C2425716   6.393   7.492   2.326 -0.0674  0.1056  0.1819
  187DOPC   H4R25717   6.330   7.468   2.414  0.3623 -3.0145 -0.2414
  187DOPC   H4S25718   6.339   7.575   2.277 -1.4358 -1.7483 -1.6272
  187DOPC   C2525719   6.530   7.528   2.386 -0.3936 -0.0007  0.7004
  187DOPC   H5R25720   6.596   7.597   2.329  0.6656 -1.6081 -0.0976
  187DOPC   H5S25721   6.581   7.430   2.399  1.1944  0.4211 -1.7130
  187DOPC   C2625722   6.519   7.587   2.530 -0.1366  0.1019  0.3210
  187DOPC   H6R25723   6.476   7.510   2.597 -0.4860  0.3920  0.4290
  187DOPC   H6S25724   6.438   7.663   2.526 -0.5079 -0.3240 -0.8991
  187DOPC   C2725725   6.652   7.651   2.587 -0.0225  0.4885 -0.1180
  187DOPC   H7R25726   6.631   7.727   2.665 -1.3374  1.3253 -1.2368
  187DOPC   H7S25727   6.700   7.698   2.499  0.9222  0.3606  0.3109
  187DOPC   C2825728   6.759   7.550   2.642  0.5736  0.8671 -0.0632
  187DOPC   H8R25729   6.859   7.597   2.654  1.1856 -0.3560 -0.1159
  187DOPC   H8S25730   6.780   7.470   2.567  0.9519  1.1004 -0.2069
  187DOPC   C2925731   6.689   7.502   2.771 -1.0020  0.4518  0.3624
  187DOPC   H9R25732   6.636   7.409   2.747 -0.0143  0.0546 -0.3453
  187DOPC  C21025733   6.688   7.564   2.893 -0.5345  1.2673 -0.2060
  187DOPC  H10R25734   6.641   7.514   2.979 -1.0393  1.8967 -0.1067
  187DOPC  C21125735   6.758   7.696   2.928 -0.5623 -0.2079 -0.0738
  187DOPC  H11R25736   6.689   7.759   2.987 -1.2536  0.7575 -1.8304
  187DOPC  H11S25737   6.769   7.754   2.833 -0.4048 -0.0478  0.0425
  187DOPC  C21225738   6.902   7.677   2.985  0.6623  1.0418 -0.6960
  187DOPC  H12R25739   6.954   7.775   2.989  1.2625  0.7148 -0.3508
  187DOPC  H12S25740   6.974   7.612   2.931  0.7407 -1.7240  2.3748
  187DOPC  C21325741   6.885   7.618   3.130 -0.6533 -0.8184  0.0389
  187DOPC  H13R25742   6.866   7.509   3.115  2.0437 -1.1943 -1.1458
  187DOPC  H13S25743   6.793   7.666   3.170 -1.3948 -2.3402  0.2328
  187DOPC  C21425744   6.999   7.633   3.223 -0.8268 -0.6001 -0.7424
  187DOPC  H14R25745   6.959   7.587   3.316 -1.0146 -1.1631 -1.1002
  187DOPC  H14S25746   7.016   7.742   3.239 -0.2101 -0.7079 -0.6165
  187DOPC  C21525747   7.116   7.548   3.174  0.2277 -0.9913 -0.1471
  187DOPC  H15R25748   7.167   7.600   3.090  0.0308 -1.4531 -0.5538
  187DOPC  H15S25749   7.082   7.449   3.136 -2.8039  0.2049 -0.8311
  187DOPC  C21625750   7.228   7.549   3.279 -0.5808  0.7108 -1.0222
  187DOPC  H16R25751   7.232   7.646   3.333  1.1808 -0.1880  0.6085
  187DOPC  H16S25752   7.322   7.536   3.222 -0.4942  0.9875 -0.9407
  187DOPC  C21725753   7.213   7.437   3.386  0.1694 -0.5637  0.1530
  187DOPC  H17R25754   7.190   7.336   3.345  0.5220 -0.4312 -0.3801
  187DOPC  H17S25755   7.119   7.461   3.440  0.5686  0.8781  0.2549
  187DOPC  C21825756   7.315   7.430   3.502 -0.4202  0.4844  0.0335
  187DOPC  H18R25757   7.329   7.530   3.547  2.9047  0.4358 -0.6662
  187DOPC  H18S25758   7.413   7.390   3.470  0.1376  1.5950  0.3269
  187DOPC  H18T25759   7.275   7.370   3.586 -0.8249  0.1029 -0.4264
  187DOPC   C3325760   6.317   7.879   2.111  0.5561 -0.2626  0.6943
  187DOPC   H3X25761   6.402   7.830   2.059  0.3879 -1.7335  1.7529
  187DOPC   H3Y25762   6.251   7.805   2.161 -0.2943  1.0673  1.6154
  187DOPC   C3425763   6.380   7.964   2.221 -0.1234 -0.1856  0.1619
  187DOPC   H4X25764   6.296   7.984   2.290  0.4324 -1.7782  1.3479
  187DOPC   H4Y25765   6.418   8.057   2.174  0.7041 -0.2946  0.5909
  187DOPC   C3525766   6.497   7.891   2.294 -0.1862 -0.2354 -0.3278
  187DOPC   H5X25767   6.573   7.854   2.221  1.8295 -0.6548  1.8516
  187DOPC   H5Y25768   6.449   7.800   2.335  1.6369 -0.8692  0.4965
  187DOPC   C3625769   6.566   7.984   2.396  0.4811 -0.0907 -0.1047
  187DOPC   H6X25770   6.490   8.017   2.471 -1.3069 -3.4133 -0.2675
  187DOPC   H6Y25771   6.640   7.921   2.449 -0.8390  0.0848  2.1178
  187DOPC   C3725772   6.636   8.113   2.344  0.4717  0.0692  0.7586
  187DOPC   H7X25773   6.731   8.083   2.295  2.6772  1.8982  3.5754
  187DOPC   H7Y25774   6.579   8.165   2.264  1.7483  2.6485  1.4154
  187DOPC   C3825775   6.668   8.221   2.451  0.7934  0.4278 -0.4443
  187DOPC   H8X25776   6.750   8.183   2.514  0.8946 -2.0766 -1.9663
  187DOPC   H8Y25777   6.579   8.230   2.518  0.3524 -2.3964 -0.5518
  187DOPC   C3925778   6.701   8.347   2.390 -0.0514 -0.0529 -0.6335
  187DOPC   H9X25779   6.669   8.363   2.285  0.8311 -0.2214 -0.9374
  187DOPC  C31025780   6.755   8.452   2.443  0.7630 -0.1911 -0.4300
  187DOPC  H10X25781   6.759   0.010   2.385  0.4567  0.0391 -0.0923
  187DOPC  C31125782   6.801   8.454   2.584  0.3508  0.1399  0.5766
  187DOPC  H11X25783   6.894   8.514   2.581  0.9433 -0.7515  0.7106
  187DOPC  H11Y25784   6.843   8.358   2.620 -1.5049 -0.0436  2.4628
  187DOPC  C31225785   6.689   8.494   2.689 -0.9189 -0.3891  0.9158
  187DOPC  H12X25786   6.610   8.416   2.699 -1.2264 -0.0176  1.4926
  187DOPC  H12Y25787   6.644   0.056   2.661 -2.7479 -1.1362  1.0958
  187DOPC  C31325788   6.749   8.513   2.831  0.0700 -0.3129  0.7988
  187DOPC  H13X25789   6.805   8.419   2.851  0.9152  0.2563  1.1680
  187DOPC  H13Y25790   6.835   0.047   2.824  0.2346 -0.5945 -0.2979
  187DOPC  C31425791   6.643   0.013   2.936 -0.4077 -0.0080 -0.2716
  187DOPC  H14X25792   6.608   0.118   2.928  0.9845  0.4982 -0.0566
  187DOPC  H14Y25793   6.556   8.489   2.899 -0.5024 -0.0088 -0.0491
  187DOPC  C31525794   6.684   8.530   3.081  0.5691 -0.0958  0.4650
  187DOPC  H15X25795   6.746   8.439   3.096  1.1102 -0.1478 -1.7589
  187DOPC  H15Y25796   6.591   8.527   3.141  0.6624 -1.0645  0.5867
  187DOPC  C31625797   6.764   0.120   3.131  0.1356 -0.1819 -0.5514
  187DOPC  H16X25798   6.851   0.146   3.066 -0.2958  1.2526 -0.5813
  187DOPC  H16Y25799   6.696   0.206   3.117 -1.0703 -0.8279  1.0902
  187DOPC  C31725800   6.792   0.117   3.286  0.5085 -0.1247  0.2819
  187DOPC  H17X25801   6.702   0.108   3.350 -0.0013 -1.6215 -0.5963
  187DOPC  H17Y25802   6.858   0.028   3.290 -0.0677 -0.6220 -0.8103
  187DOPC  C31825803   6.884   0.230   3.336 -1.0312  0.4155 -0.4944
  187DOPC  H18X25804   6.832   0.327   3.348 -0.3595  0.6923  0.2877
  187DOPC  H18Y25805   6.931   0.195   3.431  0.2140  0.7061 -0.9793
  187DOPC  H18Z25806   6.964   0.250   3.261 -3.1492 -1.0895 -3.3615
  188DOPC     N25807   1.395   7.194   1.030 -0.0414  0.1895 -0.0370
  188DOPC   C1225808   1.418   7.286   1.151  0.7028  0.4363  1.1770
  188DOPC  H12A25809   1.330   7.339   1.184 -0.2421 -0.7714  0.6807
  188DOPC  H12B25810   1.488   7.362   1.119  1.9363 -0.5823  1.3643
  188DOPC   C1325811   1.514   7.118   0.988 -0.5745  0.4992 -0.1227
  188DOPC  H13A25812   1.598   7.185   0.977  0.1859 -0.8218 -4.9568
  188DOPC  H13B25813   1.532   7.038   1.058  0.9478  0.9177  0.0024
  188DOPC  H13C25814   1.497   7.068   0.893 -0.6206  0.3607 -0.0419
  188DOPC   C1425815   1.346   7.276   0.909  0.0881 -0.4541  0.0005
  188DOPC  H14A25816   1.393   7.370   0.886  0.3053 -0.1722  1.5350
  188DOPC  H14B25817   1.349   7.220   0.816 -0.6096  0.5988 -0.6787
  188DOPC  H14C25818   1.243   7.299   0.930  0.5740  0.7715  1.1356
  188DOPC   C1525819   1.285   7.098   1.071 -0.0796  0.1905  0.2502
  188DOPC  H15A25820   1.272   7.007   1.015 -0.3771 -0.6078  1.5586
  188DOPC  H15B25821   1.188   7.146   1.084 -0.2967 -0.1843  0.0126
  188DOPC  H15C25822   1.305   7.062   1.171  0.7367 -0.8051 -0.2574
  188DOPC   C1125823   1.480   7.218   1.277  0.0400  0.6498 -0.8654
  188DOPC  H11A25824   1.562   7.148   1.251 -1.3387 -1.2832 -0.2422
  188DOPC  H11B25825   1.524   7.297   1.341 -0.8822 -0.8045  1.7189
  188DOPC     P25826   1.265   7.224   1.433  0.2234  0.0310 -0.0454
  188DOPC   O1325827   1.166   7.122   1.480 -0.6569 -0.3016 -0.2777
  188DOPC   O1425828   1.203   7.324   1.343  0.1801 -0.1710 -0.0358
  188DOPC   O1225829   1.378   7.151   1.350  0.2228 -0.2875  0.3620
  188DOPC   O1125830   1.346   7.296   1.546  0.4140  0.2209  0.3538
  188DOPC    C125831   1.447   7.225   1.626 -0.4376 -0.2453  0.3460
  188DOPC    HA25832   1.537   7.203   1.565 -0.9473 -0.2620 -0.4045
  188DOPC    HB25833   1.412   7.124   1.656  0.9213 -0.1541  2.4748
  188DOPC    C225834   1.485   7.311   1.739  0.0371  0.4062  0.4697
  188DOPC    HS25835   1.581   7.280   1.785 -0.4697 -0.5410  0.9125
  188DOPC   O2125836   1.380   7.326   1.835  0.4424  0.2604 -0.2289
  188DOPC   C2125837   1.376   7.224   1.924  0.0308  0.1750 -0.0470
  188DOPC   O2225838   1.456   7.129   1.927 -0.3363  0.2965 -0.3843
  188DOPC   C2225839   1.260   7.256   2.025  0.3635  0.0507 -0.5488
  188DOPC   H2R25840   1.249   7.365   2.005  1.6298  0.4672  0.8143
  188DOPC   H2S25841   1.304   7.238   2.126  0.7237  1.6547 -0.3922
  188DOPC    C325842   1.525   7.452   1.686 -0.3981  0.1662 -0.0640
  188DOPC    HX25843   1.452   7.499   1.617 -0.3976 -1.3465 -1.1373
  188DOPC    HY25844   1.615   7.444   1.622 -0.6345  0.6941 -0.4675
  188DOPC   O3125845   1.544   7.543   1.798 -0.4344 -0.2206 -0.5371
  188DOPC   C3125846   1.659   7.533   1.866 -0.3384  0.0939 -0.0098
  188DOPC   O3225847   1.757   7.464   1.833  0.4244 -0.2644 -0.1625
  188DOPC   C3225848   1.650   7.614   2.000 -0.3219 -0.0548  0.1368
  188DOPC   H2X25849   1.757   7.638   2.021  0.5918 -1.2535 -2.6194
  188DOPC   H2Y25850   1.602   7.711   1.974 -2.4818 -0.8743  0.8971
  188DOPC   C2325851   1.126   7.181   1.986 -0.4897  0.1888  0.6487
  188DOPC   H3R25852   1.148   7.072   1.982 -1.4780 -0.0675  1.6306
  188DOPC   H3S25853   1.088   7.229   1.893 -0.6798 -0.0917  0.5800
  188DOPC   C2425854   1.022   7.221   2.089  0.2657 -0.0496  0.0986
  188DOPC   H4R25855   0.992   7.328   2.077 -0.9086 -0.3742 -0.0409
  188DOPC   H4S25856   1.077   7.226   2.184  0.6389  0.2450 -0.1302
  188DOPC   C2525857   0.908   7.123   2.100  0.6870  0.2792  0.3805
  188DOPC   H5R25858   0.961   7.026   2.111 -2.7634 -2.0588 -1.6557
  188DOPC   H5S25859   0.840   7.126   2.013 -0.2454  1.3877  1.1101
  188DOPC   C2625860   0.828   7.139   2.229 -0.1931 -0.6855  0.1649
  188DOPC   H6R25861   0.760   7.226   2.218  1.1451  0.7522  2.2948
  188DOPC   H6S25862   0.897   7.168   2.312 -2.0269  0.9489  1.2137
  188DOPC   C2725863   0.734   7.028   2.282 -0.3602  0.3023 -0.4662
  188DOPC   H7R25864   0.705   7.056   2.385 -1.9781  0.4759 -0.9353
  188DOPC   H7S25865   0.788   6.932   2.291 -0.2426  0.3228 -0.9136
  188DOPC   C2825866   0.610   7.023   2.187  0.1442 -0.0514 -0.1013
  188DOPC   H8R25867   0.540   6.944   2.219 -0.2111  0.2603 -0.1080
  188DOPC   H8S25868   0.645   6.988   2.088  0.1200  0.5664 -0.3331
  188DOPC   C2925869   0.528   7.153   2.172 -0.4690 -0.6516  0.3841
  188DOPC   H9R25870   0.576   7.229   2.109  0.0808 -0.8971  0.4929
  188DOPC  C21025871   0.430   7.187   2.256 -0.4473 -0.6183 -0.4282
  188DOPC  H10R25872   0.378   7.283   2.244 -1.6626 -1.2963 -0.7749
  188DOPC  C21125873   0.369   7.105   2.361  0.1673  0.3758  0.7426
  188DOPC  H11R25874   0.429   7.013   2.376 -0.5422 -0.0344  1.1078
  188DOPC  H11S25875   0.267   7.070   2.333  1.1509 -2.6835  0.6490
  188DOPC  C21225876   0.362   7.178   2.501  0.0653 -0.0216 -0.4266
  188DOPC  H12R25877   0.466   7.215   2.516  0.8710 -2.6436  1.2056
  188DOPC  H12S25878   0.343   7.108   2.586  2.9010  1.3511  1.5351
  188DOPC  C21325879   0.258   7.294   2.509  0.1476 -0.3005 -0.4876
  188DOPC  H13R25880   0.151   7.271   2.494 -0.4078  0.1015  2.3529
  188DOPC  H13S25881   0.288   7.362   2.426 -2.2044  0.8130 -0.5152
  188DOPC  C21425882   0.274   7.361   2.645  1.0922  1.0506  0.6517
  188DOPC  H14R25883   0.381   7.392   2.655  1.2752  0.5424  0.2837
  188DOPC  H14S25884   0.261   7.279   2.719 -0.1413  0.1294 -0.5594
  188DOPC  C21525885   0.173   7.472   2.666 -1.0910 -0.7692 -0.0726
  188DOPC  H15R25886   0.070   7.448   2.631 -0.6408 -2.2040 -0.4791
  188DOPC  H15S25887   0.203   7.560   2.605 -0.8267 -1.9191 -1.6739
  188DOPC  C21625888   0.173   7.523   2.811  0.2272  0.2447 -0.2380
  188DOPC  H16R25889   0.145   7.440   2.879  1.4445 -1.4510 -1.6882
  188DOPC  H16S25890   0.104   7.610   2.818 -3.2965 -2.4097  1.3635
  188DOPC  C21725891   0.310   7.561   2.847  0.3170 -0.0820  0.5661
  188DOPC  H17R25892   0.334   7.650   2.784 -1.3763 -0.7015 -1.0643
  188DOPC  H17S25893   0.393   7.490   2.828 -0.6307 -1.6699  2.0932
  188DOPC  C21825894   0.313   7.600   2.994 -0.3782 -0.3122 -0.0715
  188DOPC  H18R25895   0.271   7.516   3.053 -1.5608  1.2723  1.4525
  188DOPC  H18S25896   0.244   7.682   3.024  0.2988 -0.4789  2.1372
  188DOPC  H18T25897   0.417   7.611   3.033  0.1413  0.2460 -1.5503
  188DOPC   C3325898   1.588   7.537   2.116 -0.6388  0.8184  0.2472
  188DOPC   H3X25899   1.504   7.476   2.075 -1.4890  1.6415  0.7221
  188DOPC   H3Y25900   1.545   7.607   2.190 -1.9218  0.1702  0.1460
  188DOPC   C3425901   1.684   7.440   2.189 -0.0818  0.0520  0.2107
  188DOPC   H4X25902   1.780   7.494   2.205 -1.5099  2.0338  2.7541
  188DOPC   H4Y25903   1.699   7.351   2.123  0.0522 -0.6700  1.1890
  188DOPC   C3525904   1.630   7.403   2.325 -0.2989  0.1477 -0.0658
  188DOPC   H5X25905   1.528   7.362   2.308 -0.2736 -0.3001  0.7889
  188DOPC   H5Y25906   1.614   7.499   2.380  0.9139  0.1622  0.2871
  188DOPC   C3625907   1.713   7.292   2.399  0.2071  0.6209 -0.3640
  188DOPC   H6X25908   1.813   7.339   2.414  2.1411 -3.0028 -0.7130
  188DOPC   H6Y25909   1.675   7.279   2.503 -1.6877 -2.0069 -1.2763
  188DOPC   C3725910   1.705   7.157   2.332  0.2619  0.8080  0.3233
  188DOPC   H7X25911   1.599   7.132   2.308  0.7563 -0.9049 -0.2593
  188DOPC   H7Y25912   1.760   7.162   2.235  0.3552  2.0441  0.4286
  188DOPC   C3825913   1.761   7.039   2.408 -0.1445 -0.4148  0.3484
  188DOPC   H8X25914   1.740   6.948   2.349  0.1430  0.1733 -0.6837
  188DOPC   H8Y25915   1.713   7.034   2.508 -1.4962  2.4292 -0.0448
  188DOPC   C3925916   1.914   7.033   2.415  0.2892  0.2534  0.6170
  188DOPC   H9X25917   1.966   7.016   2.319  0.1553  3.6744 -0.1978
  188DOPC  C31025918   1.981   7.043   2.531  0.1128 -0.0601 -0.1213
  188DOPC  H10X25919   2.090   7.027   2.528  0.3017  0.9257  0.8076
  188DOPC  C31125920   1.915   7.060   2.667 -0.1579  0.5991 -0.5566
  188DOPC  H11X25921   1.852   6.974   2.696 -0.7499  1.4100  0.6805
  188DOPC  H11Y25922   1.844   7.146   2.665 -0.6530  0.2668  0.9077
  188DOPC  C31225923   2.015   7.078   2.782 -1.2373  0.0397 -0.6209
  188DOPC  H12X25924   2.083   7.160   2.750 -0.1819 -0.4070  0.3792
  188DOPC  H12Y25925   2.080   6.990   2.802 -0.5935  0.2425 -1.7338
  188DOPC  C31325926   1.947   7.104   2.918  0.1417 -0.3941 -0.3380
  188DOPC  H13X25927   1.860   7.167   2.890 -0.2365 -0.0417  1.5269
  188DOPC  H13Y25928   1.917   7.014   2.976  2.0978 -0.4638  0.6639
  188DOPC  C31425929   2.035   7.193   3.013  0.5574  0.2976  0.3188
  188DOPC  H14X25930   2.121   7.134   3.052 -0.3343 -1.9825 -0.9801
  188DOPC  H14Y25931   2.059   7.286   2.957 -1.2715  1.6683  1.6800
  188DOPC  C31525932   1.951   7.232   3.135  0.3539 -0.7335 -0.2610
  188DOPC  H15X25933   1.846   7.229   3.098  0.8436 -0.2683 -1.7619
  188DOPC  H15Y25934   1.967   7.340   3.155  2.0102 -1.2515  1.5054
  188DOPC  C31625935   1.971   7.167   3.273  0.5214  0.2900  0.0086
  188DOPC  H16X25936   1.894   7.194   3.349  1.9486  0.2478  1.5247
  188DOPC  H16Y25937   1.986   7.057   3.272  1.1250  0.3480  1.2147
  188DOPC  C31725938   2.101   7.219   3.329  0.0142 -0.5633  0.1744
  188DOPC  H17X25939   2.185   7.208   3.258 -0.9071  0.4296 -1.0951
  188DOPC  H17Y25940   2.102   7.328   3.348  0.7773 -0.8155  1.8146
  188DOPC  C31825941   2.141   7.147   3.454  0.6309  0.3779  0.3587
  188DOPC  H18X25942   2.230   7.187   3.509  0.4288  0.8106  0.3782
  188DOPC  H18Y25943   2.061   7.151   3.531 -0.0198  1.1253 -0.3464
  188DOPC  H18Z25944   2.180   7.046   3.431  0.6376  0.5675 -0.4693
  189DOPC     N25945   6.613   3.037   1.253 -0.2060 -0.2532 -0.0725
  189DOPC   C1225946   6.624   2.914   1.348 -0.3197 -0.1608  0.7336
  189DOPC  H12A25947   6.728   2.898   1.370  0.1001 -2.8751 -2.4048
  189DOPC  H12B25948   6.602   2.826   1.290 -1.6698 -0.9745  2.3953
  189DOPC   C1325949   6.665   3.163   1.319 -0.6725 -0.1144 -0.2817
  189DOPC  H13A25950   6.770   3.146   1.336 -1.0162 -0.4239  1.9613
  189DOPC  H13B25951   6.653   3.246   1.251 -2.1506 -0.5836 -0.6449
  189DOPC  H13C25952   6.619   3.196   1.412 -0.2194  1.2750 -0.5367
  189DOPC   C1425953   6.479   3.068   1.211  0.1825 -0.4610 -0.2367
  189DOPC  H14A25954   6.420   3.111   1.290  0.7742 -1.5643  0.8248
  189DOPC  H14B25955   6.479   3.140   1.130  0.1669 -1.0641 -0.7879
  189DOPC  H14C25956   6.427   2.982   1.171 -1.3523  0.5450 -0.5019
  189DOPC   C1525957   6.687   3.021   1.123  0.1191 -0.0527 -0.0353
  189DOPC  H15A25958   6.666   3.105   1.057  1.9791  0.7012  0.2718
  189DOPC  H15B25959   6.650   2.932   1.074  2.5276 -1.6740  0.9134
  189DOPC  H15C25960   6.795   3.012   1.122  0.1524  0.2035 -1.4214
  189DOPC   C1125961   6.548   2.915   1.477 -0.3162  0.4503  0.5097
  189DOPC  H11A25962   6.441   2.935   1.455  0.3569  2.0859 -1.6679
  189DOPC  H11B25963   6.552   2.811   1.514  0.8800  0.8204  1.4535
  189DOPC     P25964   6.542   3.088   1.673  0.4428 -0.4486  0.1179
  189DOPC   O1325965   6.426   3.163   1.619  0.0517  0.7280  0.5993
  189DOPC   O1425966   6.637   3.179   1.737  0.5705 -0.5053 -0.4919
  189DOPC   O1225967   6.616   3.015   1.553  0.3235  0.4884 -0.2034
  189DOPC   O1125968   6.504   2.980   1.782 -0.6980 -0.3351  0.1504
  189DOPC    C125969   6.619   2.900   1.843  0.1288  0.0811  0.0578
  189DOPC    HA25970   6.693   2.959   1.902  0.7541  1.0227 -1.6021
  189DOPC    HB25971   6.666   2.848   1.757 -0.5083 -0.2468 -0.0958
  189DOPC    C225972   6.560   2.797   1.952 -0.8772  0.9177 -0.1740
  189DOPC    HS25973   6.474   2.751   1.898 -0.7683 -0.1161  0.5036
  189DOPC   O2125974   6.514   2.873   2.070 -0.1378 -0.6766  0.0735
  189DOPC   C2125975   6.401   2.830   2.132 -0.7228  0.6269  0.7285
  189DOPC   O2225976   6.340   2.734   2.087  0.5193  0.4441  0.2139
  189DOPC   C2225977   6.368   2.896   2.259  0.1605  0.4366 -0.2784
  189DOPC   H2R25978   6.258   2.904   2.269  0.1653  0.4133 -0.2071
  189DOPC   H2S25979   6.405   3.000   2.248  0.1562  0.2729 -2.2484
  189DOPC    C325980   6.654   2.679   1.979 -0.1626  0.0457  0.0541
  189DOPC    HX25981   6.694   2.651   1.879  0.3544 -0.8901  0.5145
  189DOPC    HY25982   6.608   2.594   2.033  0.2665 -0.3391 -0.1784
  189DOPC   O3125983   6.770   2.726   2.047 -0.1810 -0.3219 -0.1753
  189DOPC   C3125984   6.766   2.729   2.178 -0.2733  0.0766  0.1531
  189DOPC   O3225985   6.670   2.688   2.244  0.3756 -0.2499 -0.6361
  189DOPC   C3225986   6.904   2.786   2.230  0.3017 -0.0844 -0.4392
  189DOPC   H2X25987   6.978   2.717   2.278  1.2780  2.2842  1.7011
  189DOPC   H2Y25988   6.966   2.806   2.140 -1.0367 -0.7132 -1.5455
  189DOPC   C2325989   6.416   2.831   2.390 -0.2833  0.4671  0.3806
  189DOPC   H3R25990   6.526   2.824   2.404 -0.4177 -0.3474  1.1864
  189DOPC   H3S25991   6.394   2.722   2.401  1.2785  0.3242  2.8253
  189DOPC   C2425992   6.357   2.903   2.514  0.7243 -0.2648 -0.5292
  189DOPC   H4R25993   6.246   2.900   2.508  0.4210  0.2495  2.8831
  189DOPC   H4S25994   6.380   3.011   2.511 -2.6481  0.5749 -0.8970
  189DOPC   C2525995   6.392   2.835   2.653  0.5743  0.4086 -0.4426
  189DOPC   H5R25996   6.501   2.822   2.666  0.3297 -0.3520  1.0756
  189DOPC   H5S25997   6.334   2.741   2.664 -0.8483  1.1240 -1.5576
  189DOPC   C2625998   6.334   2.924   2.766 -0.6040  0.2272  0.8717
  189DOPC   H6R25999   6.231   2.952   2.737 -0.6705 -0.8291  0.0177
  189DOPC   H6S26000   6.398   3.015   2.761  1.1478 -0.9660  0.7405
  189DOPC   C2726001   6.358   2.871   2.909  0.0509  0.5103 -0.5545
  189DOPC   H7R26002   6.467   2.871   2.930  0.2913  0.9517 -1.6996
  189DOPC   H7S26003   6.328   2.764   2.918  0.3983  0.5738  2.2600
  189DOPC   C2826004   6.280   2.946   3.012  1.1316  0.1511  0.0239
  189DOPC   H8R26005   6.183   2.962   2.960  0.9029  0.8601  0.6530
  189DOPC   H8S26006   6.326   3.046   3.028 -3.1224  2.0742  1.4697
  189DOPC   C2926007   6.263   2.872   3.143 -0.0461 -0.3572  0.0522
  189DOPC   H9R26008   6.346   2.813   3.184  0.0184 -0.0211  0.4038
  189DOPC  C21026009   6.160   2.891   3.224  0.6400  0.0701 -0.2905
  189DOPC  H10R26010   6.141   2.812   3.299 -0.2441 -1.5088 -2.0829
  189DOPC  C21126011   6.040   2.968   3.175  1.1515 -0.3916  0.9594
  189DOPC  H11R26012   5.993   2.912   3.091 -0.1029  0.6949  0.8977
  189DOPC  H11S26013   6.067   3.056   3.113  0.9179 -0.9893 -0.0023
  189DOPC  C21226014   5.936   2.979   3.278 -0.2318  0.1384  0.0717
  189DOPC  H12R26015   5.864   3.059   3.251 -0.7758 -1.2171 -2.8410
  189DOPC  H12S26016   5.984   2.994   3.377  1.0072 -1.7670 -0.2017
  189DOPC  C21326017   5.844   2.860   3.286 -0.2683  0.8137  0.7034
  189DOPC  H13R26018   5.910   2.777   3.322  0.7024  2.0856  1.9603
  189DOPC  H13S26019   5.805   2.830   3.187  0.9932 -2.6422  1.1075
  189DOPC  C21426020   5.731   2.889   3.384  0.1393 -0.3638 -0.7025
  189DOPC  H14R26021   5.661   2.966   3.345  0.5781  1.0591  1.1905
  189DOPC  H14S26022   5.766   2.931   3.480 -2.1305 -0.4283  0.1921
  189DOPC  C21526023   5.653   2.759   3.416 -0.2265 -0.9037  0.1838
  189DOPC  H15R26024   5.721   2.679   3.454  1.0019 -0.3119 -0.7015
  189DOPC  H15S26025   5.615   2.727   3.317 -2.5305 -0.9668  1.0393
  189DOPC  C21626026   5.540   2.774   3.519  0.1672 -0.4993 -0.7062
  189DOPC  H16R26027   5.467   2.857   3.510 -0.1626 -0.6126  0.7710
  189DOPC  H16S26028   5.591   2.780   3.617  0.7025 -2.3822 -0.8254
  189DOPC  C21726029   5.461   2.638   3.524 -0.5336  0.3103  0.0013
  189DOPC  H17R26030   5.520   2.546   3.538 -1.3406 -0.1817  0.2630
  189DOPC  H17S26031   5.395   2.625   3.435 -0.2147 -1.9454  0.0311
  189DOPC  C21826032   5.375   2.629   3.647  0.1979 -0.1745 -0.0975
  189DOPC  H18R26033   5.313   2.721   3.651 -0.2582 -0.4760 -0.2614
  189DOPC  H18S26034   5.444   2.632   3.735 -0.2369  0.5812  0.2318
  189DOPC  H18T26035   5.318   2.535   3.656  2.1016 -1.4529 -0.8665
  189DOPC   C3326036   6.897   2.909   2.319  0.3357 -0.1808 -0.0590
  189DOPC   H3X26037   6.854   2.884   2.419  0.8215  1.3801  0.5782
  189DOPC   H3Y26038   6.815   2.973   2.279  1.9216  1.8597 -0.2162
  189DOPC   C3426039   7.016   3.002   2.331  1.4324  1.7935 -0.2812
  189DOPC   H4X26040   6.990   3.096   2.384 -3.5601  0.4298  0.1442
  189DOPC   H4Y26041   7.032   3.026   2.224  2.0729  1.1849 -0.3344
  189DOPC   C3526042   7.141   2.935   2.391 -0.0508  0.3371 -0.5727
  189DOPC   H5X26043   7.232   2.983   2.349 -0.4123  2.6989  1.1974
  189DOPC   H5Y26044   7.137   2.830   2.354 -1.8082  0.4428 -0.7866
  189DOPC   C3626045   7.157   2.943   2.545 -0.1839  0.2315 -0.3420
  189DOPC   H6X26046   7.176   3.051   2.560 -3.5518  0.9298 -0.4650
  189DOPC   H6Y26047   7.058   2.928   2.592  0.6868 -2.4274  0.8604
  189DOPC   C3726048   7.256   2.842   2.605 -0.0997 -0.3451 -0.1061
  189DOPC   H7X26049   7.200   2.746   2.600 -0.0397 -0.3195 -1.8297
  189DOPC   H7Y26050   7.345   2.832   2.539  0.6275 -2.6467  1.1306
  189DOPC   C3826051   7.301   2.881   2.748  0.1175 -0.2980 -0.1087
  189DOPC   H8X26052   7.217   2.871   2.820  0.4686 -3.2364  0.0131
  189DOPC   H8Y26053   7.338   2.986   2.741 -2.0017  0.5083  0.0181
  189DOPC   C3926054   7.414   2.788   2.800  0.7981 -0.2272  0.1782
  189DOPC   H9X26055   7.400   2.681   2.778 -1.0014  0.1271 -0.5679
  189DOPC  C31026056   7.522   2.820   2.878  0.5299  0.0116  0.1254
  189DOPC  H10X26057   7.597   2.741   2.891 -0.1723 -0.4286  1.6832
  189DOPC  C31126058   7.555   2.957   2.936 -0.6770  0.2054 -1.1124
  189DOPC  H11X26059   7.509   3.037   2.874  0.3037  0.6767 -1.2470
  189DOPC  H11Y26060   7.664   2.976   2.940 -0.6283 -0.2818  1.3311
  189DOPC  C31226061   7.497   2.980   3.077  0.1574 -0.4811 -0.5711
  189DOPC  H12X26062   7.391   2.951   3.089 -0.1751  0.2588 -1.5660
  189DOPC  H12Y26063   7.494   3.090   3.095  0.3803 -0.8038  1.7836
  189DOPC  C31326064   7.583   2.919   3.184 -0.6231 -0.4042  0.7228
  189DOPC  H13X26065   7.563   2.810   3.183 -1.8904 -0.2001 -1.1111
  189DOPC  H13Y26066   7.688   2.932   3.152 -1.0133 -0.3194 -0.5946
  189DOPC  C31426067   7.537   2.957   3.327  0.2467  0.2481 -0.0875
  189DOPC  H14X26068   7.538   3.068   3.332 -1.1962  0.2383  0.9255
  189DOPC  H14Y26069   7.436   2.911   3.332  1.3139 -2.1315  2.6253
  189DOPC  C31526070   7.618   2.899   3.448  0.4721  0.2846  0.0170
  189DOPC  H15X26071   7.612   2.788   3.444  0.7881  0.2920 -1.2527
  189DOPC  H15Y26072   7.567   2.931   3.541 -0.4932  0.0935 -0.4342
  189DOPC  C31626073   7.766   2.942   3.447 -0.2720  0.1550  0.1049
  189DOPC  H16X26074   7.819   2.899   3.360 -0.7475 -2.6462  1.0902
  189DOPC  H16Y26075   7.781   3.052   3.435  3.7791 -0.1538  0.9973
  189DOPC  C31726076   7.837   2.893   3.575 -0.0498  0.0246 -0.5624
  189DOPC  H17X26077   7.781   2.925   3.665 -0.7370  0.3719 -1.1030
  189DOPC  H17Y26078   7.840   2.782   3.584  1.5658  0.1983  2.0952
  189DOPC  C31826079   7.985   2.930   3.576 -0.4911  0.6807  0.3978
  189DOPC  H18X26080   8.046   2.886   3.657 -0.1743 -0.6617 -0.5363
  189DOPC  H18Y26081   8.041   2.905   3.484  0.2269  2.9067  0.1709
  189DOPC  H18Z26082   7.994   3.041   3.572 -2.2496  0.8774  0.8054
  190DOPC     N26083   6.385   0.510   1.623 -0.0108  0.5019  0.3291
  190DOPC   C1226084   6.358   0.460   1.766 -0.3764  0.2983  0.1026
  190DOPC  H12A26085   6.364   0.538   1.839 -1.0240 -0.0976  0.5993
  190DOPC  H12B26086   6.428   0.379   1.776 -0.7782 -0.5139 -2.6101
  190DOPC   C1326087   6.277   0.602   1.578 -0.3558  0.1144 -0.2715
  190DOPC  H13A26088   6.264   0.681   1.650  0.5306  1.0917 -1.1395
  190DOPC  H13B26089   6.298   0.639   1.478 -0.8288  1.4851  0.1161
  190DOPC  H13C26090   6.184   0.548   1.580  0.6579 -1.8447 -2.0701
  190DOPC   C1426091   6.391   0.399   1.526 -0.1702 -0.7750  0.7552
  190DOPC  H14A26092   6.474   0.331   1.530 -0.0235 -0.9691 -2.6481
  190DOPC  H14B26093   6.305   0.336   1.542 -0.5718  0.3115  3.3521
  190DOPC  H14C26094   6.400   0.441   1.427  0.7148 -0.0807  1.1227
  190DOPC   C1526095   6.515   0.584   1.619 -0.9717 -0.0002 -0.6415
  190DOPC  H15A26096   6.601   0.520   1.631 -0.9393 -0.4487 -2.8450
  190DOPC  H15B26097   6.521   0.645   1.708 -0.4687 -0.8276 -0.0906
  190DOPC  H15C26098   6.535   0.641   1.530 -0.9474  0.3530 -0.4128
  190DOPC   C1126099   6.219   0.394   1.789 -0.1085 -0.2279 -0.4645
  190DOPC  H11A26100   6.210   0.360   1.895  0.7997 -0.3510 -0.4163
  190DOPC  H11B26101   6.136   0.467   1.783 -2.0057 -2.1444  0.8984
  190DOPC     P26102   6.044   0.201   1.729  0.0060  0.2668 -0.7317
  190DOPC   O1326103   6.035   0.077   1.646 -0.3418 -0.0524  0.8288
  190DOPC   O1426104   5.939   0.293   1.727 -0.3591 -0.0246  0.2028
  190DOPC   O1226105   6.186   0.278   1.712  0.3503  0.4489 -0.3775
  190DOPC   O1126106   6.043   0.152   1.881 -0.4221 -0.0224  0.0516
  190DOPC    C126107   5.943   0.055   1.922  0.1624 -0.3155  0.0373
  190DOPC    HA26108   5.980   8.491   1.887  2.3679 -0.2001  1.7680
  190DOPC    HB26109   5.838   0.078   1.894  0.5478  2.0368  0.3265
  190DOPC    C226110   5.940   0.039   2.075 -0.6292 -0.8631  0.0045
  190DOPC    HS26111   5.869   8.490   2.093  0.7325 -2.0705 -0.1088
  190DOPC   O2126112   5.902   0.170   2.126  0.6264  0.3536 -0.2089
  190DOPC   C2126113   5.835   0.160   2.236  0.1332  0.6556 -0.0342
  190DOPC   O2226114   5.782   0.060   2.280 -0.0362  0.2323 -0.5280
  190DOPC   C2226115   5.836   0.299   2.301 -0.4412 -0.2603  0.2607
  190DOPC   H2R26116   5.861   0.379   2.228 -1.2180  0.4556  0.7593
  190DOPC   H2S26117   5.906   0.297   2.387  0.5453  0.7298 -0.4916
  190DOPC    C326118   6.083   0.009   2.129 -0.2070  0.3862 -0.5842
  190DOPC    HX26119   6.140   0.101   2.105  1.0941 -0.4498 -0.7505
  190DOPC    HY26120   6.133   8.468   2.066 -0.5355  0.2537 -0.6891
  190DOPC   O3126121   6.083   8.506   2.274  0.0990  0.3116  0.3716
  190DOPC   C3126122   6.197   8.456   2.310 -0.0259 -0.5735  0.8142
  190DOPC   O3226123   6.296   8.462   2.240 -0.9219 -0.3969 -0.1383
  190DOPC   C3226124   6.185   8.390   2.445 -0.3423 -0.1860  0.1590
  190DOPC   H2X26125   6.137   8.466   2.511 -0.2637  0.9039 -0.9933
  190DOPC   H2Y26126   6.112   8.309   2.427 -0.1004 -0.0078 -1.8415
  190DOPC   C2326127   5.702   0.330   2.378  0.1757  0.0976  0.0841
  190DOPC   H3R26128   5.684   0.254   2.456  0.6261  0.3127  0.4071
  190DOPC   H3S26129   5.620   0.324   2.304 -0.3498 -1.5227  0.7539
  190DOPC   C2426130   5.696   0.477   2.428  0.1310 -0.4385  0.1725
  190DOPC   H4R26131   5.607   0.483   2.495  1.3085 -2.0329  1.9911
  190DOPC   H4S26132   5.677   0.542   2.341 -1.0404  0.0902  0.8003
  190DOPC   C2526133   5.820   0.522   2.503  0.3671 -0.1923 -0.0578
  190DOPC   H5R26134   5.812   0.631   2.521  1.9395 -0.1677  0.6605
  190DOPC   H5S26135   5.919   0.510   2.453  0.5465 -0.9813  0.4764
  190DOPC   C2626136   5.836   0.464   2.644  0.2498 -0.3346 -0.1869
  190DOPC   H6R26137   5.732   0.440   2.676  0.3037  2.0653  2.0386
  190DOPC   H6S26138   5.875   0.544   2.710 -0.3726 -0.2849  0.1233
  190DOPC   C2726139   5.928   0.333   2.647  0.4205 -0.6660 -0.1324
  190DOPC   H7R26140   6.018   0.351   2.584 -0.5160  0.5021 -1.1563
  190DOPC   H7S26141   5.868   0.257   2.592 -2.0808  0.9241  0.2484
  190DOPC   C2826142   5.969   0.281   2.791  0.1498  0.1729 -0.2993
  190DOPC   H8R26143   5.974   0.170   2.792 -1.0784  0.0587 -2.2178
  190DOPC   H8S26144   5.889   0.307   2.863 -1.9367 -1.6625 -1.8074
  190DOPC   C2926145   6.101   0.342   2.842  0.4717  0.0451  0.2184
  190DOPC   H9R26146   6.092   0.449   2.868 -0.3878  0.1688 -0.5368
  190DOPC  C21026147   6.222   0.288   2.847 -0.2460  0.4981 -0.0565
  190DOPC  H10R26148   6.307   0.350   2.879 -0.5377  0.6347  0.4582
  190DOPC  C21126149   6.262   0.143   2.815 -0.2261 -0.2735 -0.1690
  190DOPC  H11R26150   6.178   0.087   2.768 -0.7362  0.0303  0.3704
  190DOPC  H11S26151   6.295   0.089   2.906  0.8856  1.4011  0.4728
  190DOPC  C21226152   6.381   0.144   2.715  0.8565  0.0361  0.0324
  190DOPC  H12R26153   6.421   0.043   2.691 -0.1341 -0.5658  0.8041
  190DOPC  H12S26154   6.465   0.204   2.756  1.0672 -0.6312  0.6053
  190DOPC  C21326155   6.344   0.207   2.573  0.4252  0.8276 -0.1041
  190DOPC  H13R26156   6.295   0.306   2.591  0.0187  0.6993 -0.4855
  190DOPC  H13S26157   6.277   0.131   2.527  2.6545 -0.8870 -0.6462
  190DOPC  C21426158   6.465   0.230   2.487 -0.3131 -0.2934  0.3489
  190DOPC  H14R26159   6.525   0.137   2.485  1.1911  0.6456  0.2384
  190DOPC  H14S26160   6.531   0.312   2.522  0.7314 -1.2328  0.5994
  190DOPC  C21526161   6.422   0.260   2.335 -0.1430 -1.0386 -0.6778
  190DOPC  H15R26162   6.340   0.188   2.316  0.1279 -1.7309  0.6177
  190DOPC  H15S26163   6.508   0.247   2.266  0.9269  1.8409 -0.0345
  190DOPC  C21626164   6.365   0.404   2.312 -0.2436  0.7900 -0.5587
  190DOPC  H16R26165   6.439   0.487   2.309 -0.8446  1.3413 -0.2893
  190DOPC  H16S26166   6.303   0.424   2.402 -1.2497  0.6272 -1.2080
  190DOPC  C21726167   6.284   0.408   2.186 -0.2861 -0.0250  1.1254
  190DOPC  H17R26168   6.310   0.319   2.127 -1.0989  1.0909 -1.0252
  190DOPC  H17S26169   6.326   0.492   2.127  1.1511  0.3071  2.5487
  190DOPC  C21826170   6.135   0.412   2.197  0.8944  0.0931 -0.2051
  190DOPC  H18R26171   6.100   0.312   2.231 -0.1598  0.5041 -0.0390
  190DOPC  H18S26172   6.089   0.430   2.097  0.6275  0.2916 -0.0470
  190DOPC  H18T26173   6.104   0.496   2.263  1.9646 -0.1319  0.6081
  190DOPC   C3326174   6.314   8.335   2.497 -0.2514 -0.5164  0.2801
  190DOPC   H3X26175   6.391   8.413   2.518  0.1123 -0.5861 -0.7409
  190DOPC   H3Y26176   6.368   8.280   2.417  2.0319  1.5090  0.3191
  190DOPC   C3426177   6.300   8.248   2.623  0.2153  0.8210  0.3669
  190DOPC   H4X26178   6.386   8.178   2.631 -0.0499  0.1062 -2.1942
  190DOPC   H4Y26179   6.211   8.185   2.603  0.2784  1.6119 -2.9705
  190DOPC   C3526180   6.279   8.325   2.756 -0.4160  0.1152  0.4997
  190DOPC   H5X26181   6.202   8.402   2.737  1.0134  1.6920  0.8260
  190DOPC   H5Y26182   6.370   8.384   2.780 -0.5121  0.0310  1.0830
  190DOPC   C3626183   6.244   8.227   2.861  0.3791 -0.1312 -0.4716
  190DOPC   H6X26184   6.159   8.175   2.812 -0.2122  1.2158 -0.9525
  190DOPC   H6Y26185   6.326   8.155   2.880 -0.4630 -0.8470  0.5712
  190DOPC   C3726186   6.215   8.289   2.993  0.5142 -0.2777  0.3683
  190DOPC   H7X26187   6.292   8.357   3.035  0.5686 -0.8341  1.1872
  190DOPC   H7Y26188   6.123   8.350   2.985 -0.0159 -1.1544 -0.5281
  190DOPC   C3826189   6.197   8.190   3.100  0.4839  0.3299  0.5208
  190DOPC   H8X26190   6.296   8.144   3.117  0.0167 -1.4054 -1.0973
  190DOPC   H8Y26191   6.129   8.112   3.059 -0.8216  1.5453  0.2740
  190DOPC   C3926192   6.136   8.243   3.230 -0.0530 -0.1840  0.2912
  190DOPC   H9X26193   6.186   8.334   3.267  0.1591  0.5268 -1.6667
  190DOPC  C31026194   6.019   8.216   3.293 -0.1311 -0.2411  0.3938
  190DOPC  H10X26195   5.992   8.263   3.389 -0.5875 -3.1582  1.8027
  190DOPC  C31126196   5.918   8.098   3.274  0.8209 -0.3960  0.1946
  190DOPC  H11X26197   5.850   8.114   3.188  0.6699 -0.0955  0.3670
  190DOPC  H11Y26198   5.847   8.095   3.359 -0.4131  1.0824 -0.7239
  190DOPC  C31226199   5.975   7.960   3.259 -0.1903 -0.2354 -0.3579
  190DOPC  H12X26200   6.048   7.947   3.343  2.2889  0.5916 -2.2576
  190DOPC  H12Y26201   6.039   7.951   3.168 -0.6621  0.5787 -0.7758
  190DOPC  C31326202   5.871   7.849   3.244 -0.4087 -0.3552  0.1802
  190DOPC  H13X26203   5.930   7.756   3.229  1.0112 -0.4138  4.5367
  190DOPC  H13Y26204   5.821   7.836   3.343 -0.4981 -0.0974  0.1701
  190DOPC  C31426205   5.771   7.847   3.133 -0.1124 -0.1867  0.4267
  190DOPC  H14X26206   5.723   7.748   3.121  0.2405 -0.1531 -1.9276
  190DOPC  H14Y26207   5.693   7.924   3.151  1.1861  1.5575 -1.0182
  190DOPC  C31526208   5.840   7.877   2.994  0.5414  0.0367  0.5801
  190DOPC  H15X26209   5.923   7.805   2.980 -0.0971 -0.3110 -1.7071
  190DOPC  H15Y26210   5.878   7.981   2.993  1.0609 -0.1513  0.5743
  190DOPC  C31626211   5.747   7.869   2.874  0.2965 -0.5934 -0.4401
  190DOPC  H16X26212   5.662   7.941   2.869 -0.7097 -1.7677 -1.1380
  190DOPC  H16Y26213   5.802   7.892   2.780  0.0468  1.3217 -0.1598
  190DOPC  C31726214   5.692   7.727   2.845  0.6648  0.0759 -0.0903
  190DOPC  H17X26215   5.765   7.653   2.885  1.2614 -0.8528 -2.7298
  190DOPC  H17Y26216   5.606   7.703   2.910  0.3485  1.4445  0.0161
  190DOPC  C31826217   5.666   7.691   2.698  0.0956  0.2518  0.3232
  190DOPC  H18X26218   5.623   7.588   2.690  0.4804  0.1344 -0.2942
  190DOPC  H18Y26219   5.591   7.767   2.665 -0.5435  0.3494  1.9106
  190DOPC  H18Z26220   5.759   7.709   2.640  0.0850  2.7300  0.9896
  191DOPC     N26221   0.736   5.095   1.588  0.2986  0.3547  0.0729
  191DOPC   C1226222   0.635   5.199   1.542 -0.7742 -0.4470  0.4554
  191DOPC  H12A26223   0.696   5.287   1.557  1.3467 -1.8929  0.8303
  191DOPC  H12B26224   0.555   5.194   1.615 -0.4181  1.4188  1.0257
  191DOPC   C1326225   0.682   4.956   1.619 -0.2501 -0.4648  0.6030
  191DOPC  H13A26226   0.763   4.886   1.627 -0.1214 -0.4075 -0.1092
  191DOPC  H13B26227   0.614   4.949   1.703 -0.2477  0.1948  0.6703
  191DOPC  H13C26228   0.632   4.928   1.527 -2.5879  0.2822  1.5632
  191DOPC   C1426229   0.805   5.141   1.711 -0.1479 -0.3638 -0.0365
  191DOPC  H14A26230   0.879   5.067   1.740  0.0223  0.0742  0.6868
  191DOPC  H14B26231   0.863   5.230   1.695  0.6140 -0.5315  1.5167
  191DOPC  H14C26232   0.732   5.160   1.789  1.8030  2.2914  1.2926
  191DOPC   C1526233   0.831   5.057   1.477 -1.1280 -0.0257  0.2574
  191DOPC  H15A26234   0.885   5.141   1.435  0.6861  0.1108  2.5985
  191DOPC  H15B26235   0.776   5.032   1.388 -0.4124 -0.8956  0.0560
  191DOPC  H15C26236   0.890   4.972   1.506  0.4414  0.4961 -1.2089
  191DOPC   C1126237   0.577   5.202   1.401 -0.5922  0.1697 -0.2873
  191DOPC  H11A26238   0.519   5.110   1.380 -0.0322 -0.0489 -0.9105
  191DOPC  H11B26239   0.504   5.286   1.393 -0.1394  0.6026  0.1035
  191DOPC     P26240   0.748   5.363   1.305  0.0834 -0.1473 -0.1585
  191DOPC   O1326241   0.720   5.431   1.175 -0.1352  0.8733  0.7152
  191DOPC   O1426242   0.891   5.341   1.346 -0.5046 -0.1128  0.1046
  191DOPC   O1226243   0.679   5.223   1.296 -0.5809  0.2653  0.0638
  191DOPC   O1126244   0.676   5.448   1.414  0.0954  0.6678 -0.4455
  191DOPC    C126245   0.725   5.576   1.454  0.5760  0.6376  0.7521
  191DOPC    HA26246   0.653   5.656   1.429  1.4724  1.0313 -0.6891
  191DOPC    HB26247   0.824   5.601   1.410  2.2838 -2.3041  2.5439
  191DOPC    C226248   0.725   5.597   1.609 -0.0667  0.4108  0.1783
  191DOPC    HS26249   0.797   5.522   1.649 -1.8702 -0.6099  1.6562
  191DOPC   O2126250   0.601   5.563   1.666  0.2668 -0.2530  0.0142
  191DOPC   C2126251   0.610   5.506   1.788 -0.1086  0.0583 -0.0814
  191DOPC   O2226252   0.713   5.468   1.842 -0.3225 -0.0581  0.0278
  191DOPC   C2226253   0.464   5.489   1.840 -0.7083 -0.4238  0.5900
  191DOPC   H2R26254   0.436   5.383   1.826 -0.1875 -0.7774  2.0344
  191DOPC   H2S26255   0.399   5.562   1.787  0.1197 -1.6036 -2.1833
  191DOPC    C326256   0.766   5.743   1.643 -0.1409 -0.1269 -0.8061
  191DOPC    HX26257   0.686   5.817   1.621  0.0008 -0.0685 -1.1253
  191DOPC    HY26258   0.852   5.766   1.576 -0.2941  1.1951 -0.5828
  191DOPC   O3126259   0.814   5.760   1.779  0.5803 -0.8846  0.1815
  191DOPC   C3126260   0.725   5.794   1.871  0.5631 -0.4237  0.0013
  191DOPC   O3226261   0.606   5.811   1.863 -0.0167  0.1034 -0.9593
  191DOPC   C3226262   0.803   5.811   2.000 -0.8190 -0.0876  0.2731
  191DOPC   H2X26263   0.835   5.711   2.038 -0.1937 -0.1606 -0.4310
  191DOPC   H2Y26264   0.892   5.877   1.992 -1.3142  0.6105  0.4106
  191DOPC   C2326265   0.468   5.504   1.989  0.9340  0.5226  0.0173
  191DOPC   H3R26266   0.550   5.565   2.033 -0.2215  1.4777  0.9147
  191DOPC   H3S26267   0.495   5.405   2.032  3.4277  1.4133  0.6876
  191DOPC   C2426268   0.331   5.554   2.043 -0.3241  0.7689  0.3598
  191DOPC   H4R26269   0.248   5.481   2.027  0.8040 -0.6835  0.8821
  191DOPC   H4S26270   0.306   5.653   1.998 -2.9312  0.5353  1.1145
  191DOPC   C2526271   0.320   5.559   2.199 -0.4007 -0.1329 -0.6493
  191DOPC   H5R26272   0.336   5.456   2.236 -1.5300  0.6875  2.4595
  191DOPC   H5S26273   0.214   5.583   2.223 -0.1830  2.1832 -1.6633
  191DOPC   C2626274   0.422   5.647   2.268 -0.4158 -0.7702 -0.3191
  191DOPC   H6R26275   0.398   5.747   2.228  1.8825  0.0220  0.1331
  191DOPC   H6S26276   0.526   5.630   2.234 -0.0656  1.0836 -0.2440
  191DOPC   C2726277   0.427   5.637   2.422  0.0953  0.3456 -0.1251
  191DOPC   H7R26278   0.491   5.549   2.445 -0.0840  0.1823 -0.2501
  191DOPC   H7S26279   0.326   5.617   2.461 -0.9417  4.3769 -0.2679
  191DOPC   C2826280   0.481   5.757   2.500 -0.0880 -0.0113  0.1179
  191DOPC   H8R26281   0.405   5.836   2.481  0.0283 -0.0484 -0.5154
  191DOPC   H8S26282   0.577   5.796   2.460 -0.6098  0.0622 -1.1003
  191DOPC   C2926283   0.486   5.748   2.651  0.5350  1.0111 -0.1271
  191DOPC   H9R26284   0.392   5.718   2.700 -0.5128 -0.0579 -2.6195
  191DOPC  C21026285   0.586   5.767   2.739  0.3248 -0.1663  0.6118
  191DOPC  H10R26286   0.582   5.756   2.848  0.3270  0.5338  0.6846
  191DOPC  C21126287   0.718   5.808   2.694 -0.4800 -0.1215  0.1912
  191DOPC  H11R26288   0.708   5.919   2.686  0.5681 -0.0259  0.1317
  191DOPC  H11S26289   0.739   5.776   2.590 -1.1680 -1.4058  0.4325
  191DOPC  C21226290   0.821   5.754   2.793 -0.0645 -0.3338  0.1807
  191DOPC  H12R26291   0.817   5.798   2.894 -0.0330  0.2923 -0.0843
  191DOPC  H12S26292   0.918   5.781   2.747 -1.6589 -0.1698 -3.4686
  191DOPC  C21326293   0.829   5.600   2.816 -0.4900 -0.4450 -0.4335
  191DOPC  H13R26294   0.804   5.539   2.727 -2.1214  1.2898 -1.2407
  191DOPC  H13S26295   0.749   5.567   2.886  1.7724  0.1755  2.6317
  191DOPC  C21426296   0.957   5.568   2.880  0.2871  0.0391 -0.0004
  191DOPC  H14R26297   0.966   5.619   2.978  1.4280  1.6226 -0.8805
  191DOPC  H14S26298   1.045   5.591   2.815  2.9509 -1.6435  2.7087
  191DOPC  C21526299   0.960   5.418   2.925 -0.1681 -0.0067 -0.7517
  191DOPC  H15R26300   0.865   5.376   2.966  0.8955 -2.9659 -1.0377
  191DOPC  H15S26301   1.035   5.426   3.007  2.6989 -2.7108 -2.8575
  191DOPC  C21626302   1.014   5.331   2.810  0.4128  0.1373  0.2698
  191DOPC  H16R26303   0.939   5.345   2.729  1.5347 -0.2087 -0.8756
  191DOPC  H16S26304   1.004   5.223   2.836 -1.3880  0.6412  1.8522
  191DOPC  C21726305   1.155   5.349   2.748 -0.2580 -0.2536 -1.1015
  191DOPC  H17R26306   1.235   5.299   2.806 -1.0073 -0.6150 -0.3461
  191DOPC  H17S26307   1.190   5.454   2.739 -1.4174  0.1031 -1.6030
  191DOPC  C21826308   1.170   5.295   2.603 -0.1882  0.5595 -0.2902
  191DOPC  H18R26309   1.271   5.300   2.557 -0.6603  1.0199 -1.2976
  191DOPC  H18S26310   1.105   5.358   2.538 -0.5540  1.3058  0.7691
  191DOPC  H18T26311   1.145   5.188   2.592  1.8716 -0.1628  1.3520
  191DOPC   C3326312   0.727   5.872   2.120 -0.2208  0.2604  0.7353
  191DOPC   H3X26313   0.624   5.833   2.135  0.3056 -2.0986 -1.1259
  191DOPC   H3Y26314   0.743   5.982   2.114  1.2109  0.1032  1.1768
  191DOPC   C3426315   0.778   5.834   2.267 -0.2143  0.2784  0.0750
  191DOPC   H4X26316   0.758   5.727   2.287 -2.2823  0.6330  0.0811
  191DOPC   H4Y26317   0.719   5.901   2.334 -2.1244 -1.5931  0.3529
  191DOPC   C3526318   0.929   5.854   2.279  0.1747  0.1614  0.1464
  191DOPC   H5X26319   0.961   5.960   2.288  0.3150  0.1771 -0.4818
  191DOPC   H5Y26320   0.977   5.809   2.189 -1.2742 -0.1765 -0.4790
  191DOPC   C3626321   0.978   5.785   2.409  0.0322  0.8187 -0.5479
  191DOPC   H6X26322   0.933   5.831   2.500  0.8826  1.0711 -0.2427
  191DOPC   H6Y26323   0.955   5.676   2.416  0.1438  0.8013 -0.4315
  191DOPC   C3726324   1.131   5.791   2.428  0.0074  0.0504  0.1054
  191DOPC   H7X26325   1.176   5.779   2.326 -2.2512  0.4159 -0.9883
  191DOPC   H7Y26326   1.146   5.899   2.445  2.0114  0.0388 -1.1566
  191DOPC   C3826327   1.198   5.705   2.532  0.3227 -0.3269 -0.0945
  191DOPC   H8X26328   1.179   5.597   2.516  1.2695 -0.3800 -0.9398
  191DOPC   H8Y26329   1.150   5.719   2.632 -2.5680 -0.2912 -1.3849
  191DOPC   C3926330   1.343   5.724   2.539  0.2135 -0.0651  0.2561
  191DOPC   H9X26331   1.395   5.676   2.455 -0.5738 -2.2383  0.9474
  191DOPC  C31026332   1.414   5.767   2.642  0.3368 -0.6475 -0.1527
  191DOPC  H10X26333   1.523   5.763   2.632  0.7310 -1.2246  3.0837
  191DOPC  C31126334   1.364   5.832   2.769 -1.0974  0.1247 -0.1741
  191DOPC  H11X26335   1.436   5.816   2.851 -1.9484  2.1718  1.0523
  191DOPC  H11Y26336   1.270   5.787   2.806 -1.4715  0.1422 -1.0740
  191DOPC  C31226337   1.339   5.987   2.762 -0.3563 -0.6033  0.0729
  191DOPC  H12X26338   1.257   6.024   2.697  1.0294  0.7768 -0.9962
  191DOPC  H12Y26339   1.422   6.024   2.698 -1.4198  0.4931 -0.7171
  191DOPC  C31326340   1.338   6.066   2.893 -0.1334 -0.5035  0.3920
  191DOPC  H13X26341   1.280   6.015   2.973  0.4774 -1.4392  0.2548
  191DOPC  H13Y26342   1.437   6.058   2.943  0.8768  1.2079 -1.2048
  191DOPC  C31426343   1.318   6.214   2.892  1.1513  0.4145 -0.4167
  191DOPC  H14X26344   1.363   6.263   2.803 -1.1021 -0.9744 -2.4592
  191DOPC  H14Y26345   1.210   6.238   2.882  0.9586 -0.2678 -0.0236
  191DOPC  C31526346   1.384   6.271   3.015 -0.4494  0.0537  0.4700
  191DOPC  H15X26347   1.385   6.382   3.014  0.6395  0.0699  1.2920
  191DOPC  H15Y26348   1.492   6.255   2.999 -0.9485  0.0492 -4.3968
  191DOPC  C31626349   1.333   6.229   3.156  0.3230  0.7854 -0.5580
  191DOPC  H16X26350   1.226   6.259   3.160 -0.1940 -0.9538 -0.3089
  191DOPC  H16Y26351   1.334   6.118   3.165 -0.0501  0.9041  1.3932
  191DOPC  C31726352   1.404   6.309   3.271  0.0995  0.4312  0.2776
  191DOPC  H17X26353   1.513   6.294   3.255 -0.1228 -0.1487 -0.8265
  191DOPC  H17Y26354   1.373   6.413   3.250  2.3781  0.8523 -1.4217
  191DOPC  C31826355   1.378   6.268   3.419 -0.3555  0.3071 -0.0598
  191DOPC  H18X26356   1.421   6.346   3.486  1.7815  0.9843 -2.0915
  191DOPC  H18Y26357   1.268   6.255   3.432 -0.3023 -1.5489 -1.1790
  191DOPC  H18Z26358   1.440   6.178   3.436  0.6904  0.4091 -2.7719
  192DOPC     N26359   4.442   8.376   1.477 -0.3256  0.5778 -0.0742
  192DOPC   C1226360   4.296   8.361   1.517 -0.1988 -0.3949  0.0460
  192DOPC  H12A26361   4.233   8.342   1.431 -0.7617 -1.2995  0.6513
  192DOPC  H12B26362   4.258   8.448   1.568 -1.0279 -1.6245  1.6306
  192DOPC   C1326363   4.462   8.484   1.378  0.9429  0.3215  0.1789
  192DOPC  H13A26364   4.387   8.493   1.301  1.1623  2.4704  0.1349
  192DOPC  H13B26365   4.463   0.045   1.428  2.4519  0.5754 -0.2736
  192DOPC  H13C26366   4.562   8.471   1.338  0.1536 -2.0167 -1.2380
  192DOPC   C1426367   4.500   8.252   1.414 -0.0872 -0.2841  0.3188
  192DOPC  H14A26368   4.471   8.165   1.471 -0.6289  0.3833  1.0948
  192DOPC  H14B26369   4.466   8.236   1.313  2.0585  0.2686 -0.5384
  192DOPC  H14C26370   4.608   8.262   1.418 -0.1027 -0.4718  2.6997
  192DOPC   C1526371   4.515   8.399   1.606 -0.3044  0.1956 -0.3620
  192DOPC  H15A26372   4.509   8.307   1.662  1.5534  1.2783  1.7899
  192DOPC  H15B26373   4.452   8.457   1.672  1.0026 -0.9514  2.0161
  192DOPC  H15C26374   4.615   8.441   1.600  0.1507 -0.9274 -0.9175
  192DOPC   C1126375   4.265   8.233   1.608  0.2329  0.1289 -0.6379
  192DOPC  H11A26376   4.311   8.254   1.708  1.2135 -0.4815 -0.9439
  192DOPC  H11B26377   4.155   8.234   1.624  0.0875 -0.8893 -1.4948
  192DOPC     P26378   4.372   7.992   1.621  0.1804 -0.1926  0.0001
  192DOPC   O1326379   4.493   8.050   1.680 -0.0924 -0.3261  0.1242
  192DOPC   O1426380   4.399   7.897   1.513 -0.0615  0.1575 -0.0994
  192DOPC   O1226381   4.292   8.108   1.561 -0.0069  0.0467  0.3754
  192DOPC   O1126382   4.280   7.939   1.731 -0.1675 -0.4433  0.1365
  192DOPC    C126383   4.310   7.910   1.863 -0.3967  0.2580  0.2923
  192DOPC    HA26384   4.419   7.888   1.875  0.2396  3.4497  1.1076
  192DOPC    HB26385   4.272   7.808   1.887  2.5927 -0.7473  1.1868
  192DOPC    C226386   4.269   8.017   1.961 -0.3965 -0.3025 -0.6962
  192DOPC    HS26387   4.333   8.105   1.940  0.3284 -0.1174  1.8941
  192DOPC   O2126388   4.296   7.962   2.090  0.1075 -0.5761 -0.2933
  192DOPC   C2126389   4.313   8.046   2.188 -0.5595  0.3834  0.3407
  192DOPC   O2226390   4.334   8.168   2.182  0.6010 -0.1682  0.5069
  192DOPC   C2226391   4.351   7.958   2.305  0.8455 -0.2988 -0.4918
  192DOPC   H2R26392   4.402   7.863   2.277  0.1254 -1.2977  1.3897
  192DOPC   H2S26393   4.255   7.928   2.351  1.3778 -1.2132  0.0608
  192DOPC    C326394   4.118   8.061   1.945 -0.5790  0.1272 -0.0147
  192DOPC    HX26395   4.050   7.973   1.953 -1.1065  0.6629  1.7306
  192DOPC    HY26396   4.103   8.101   1.842  0.4622  1.9434  0.5087
  192DOPC   O3126397   4.075   8.162   2.042  0.3559 -0.0492  0.2409
  192DOPC   C3126398   4.092   8.293   2.011 -0.6199  0.3662  0.1354
  192DOPC   O3226399   4.118   8.331   1.897 -0.0762  0.0287 -0.3644
  192DOPC   C3226400   4.066   8.390   2.129 -0.3137 -0.1818  0.7450
  192DOPC   H2X26401   3.958   8.410   2.143 -0.8470 -0.8645 -1.7418
  192DOPC   H2Y26402   4.101   8.341   2.222  0.7616  1.4805  1.2619
  192DOPC   C2326403   4.434   8.031   2.422  0.6738 -0.0233 -0.3004
  192DOPC   H3R26404   4.534   8.059   2.381  0.9505  0.6273  0.7710
  192DOPC   H3S26405   4.442   7.965   2.510 -0.5437  0.8210  0.4722
  192DOPC   C2426406   4.367   8.157   2.482  0.3182 -0.5275  0.1186
  192DOPC   H4R26407   4.256   8.151   2.487  0.2614  0.3964  0.1231
  192DOPC   H4S26408   4.397   8.237   2.412  0.2447  1.6830  2.4733
  192DOPC   C2526409   4.409   8.207   2.622  0.5785  0.1439  0.6990
  192DOPC   H5R26410   4.388   8.109   2.670 -0.1250 -0.4467 -0.7475
  192DOPC   H5S26411   4.343   8.288   2.660 -0.7340 -1.0637  1.0785
  192DOPC   C2626412   4.556   8.243   2.637 -0.1831  0.2212  0.1341
  192DOPC   H6R26413   4.582   8.334   2.579  0.9883  0.6507  1.2794
  192DOPC   H6S26414   4.624   8.161   2.607  0.1676 -0.6738  3.0743
  192DOPC   C2726415   4.581   8.270   2.784 -0.5602  0.6704  0.7006
  192DOPC   H7R26416   4.549   8.190   2.854  1.3347 -1.3487 -0.6211
  192DOPC   H7S26417   4.529   8.368   2.789 -0.7901  0.7307 -1.6676
  192DOPC   C2826418   4.735   8.304   2.808  0.2668 -0.2631 -0.2661
  192DOPC   H8R26419   4.748   8.352   2.907 -0.5901  0.6120 -0.5567
  192DOPC   H8S26420   4.748   8.388   2.736  0.2799 -0.4949 -0.5344
  192DOPC   C2926421   4.833   8.184   2.796  0.3463  0.1358  0.3991
  192DOPC   H9R26422   4.891   8.184   2.703 -2.1807 -1.3274 -1.2927
  192DOPC  C21026423   4.867   8.094   2.889  0.0386 -0.2134  0.5302
  192DOPC  H10R26424   4.948   8.029   2.852  0.8440  1.5483 -0.9677
  192DOPC  C21126425   4.824   8.074   3.033  0.5672 -0.2856  0.0318
  192DOPC  H11R26426   4.764   7.981   3.032  0.5078 -0.2622  0.8221
  192DOPC  H11S26427   4.760   8.161   3.060 -0.2021 -0.5790 -0.8162
  192DOPC  C21226428   4.945   8.069   3.120 -0.8044  0.0706  0.1842
  192DOPC  H12R26429   5.022   8.147   3.099  0.2537 -0.4578  1.9065
  192DOPC  H12S26430   4.989   7.971   3.094 -0.1632  0.7946 -1.6537
  192DOPC  C21326431   4.919   8.077   3.272 -0.6277 -0.2020  0.0316
  192DOPC  H13R26432   4.849   7.996   3.300 -0.3770 -0.8439 -1.1286
  192DOPC  H13S26433   4.887   8.182   3.292 -0.1771  0.3828 -2.0962
  192DOPC  C21426434   5.057   8.065   3.357  0.0232  0.0173 -0.0511
  192DOPC  H14R26435   5.116   7.981   3.313  0.3925  0.7783 -1.0459
  192DOPC  H14S26436   5.043   8.038   3.464 -0.1381  2.6269  0.6436
  192DOPC  C21526437   5.137   8.195   3.354 -0.4547 -0.2699  0.1429
  192DOPC  H15R26438   5.077   8.285   3.376  0.3362  0.5242 -0.8550
  192DOPC  H15S26439   5.164   8.213   3.247  1.7302 -1.1542  0.5048
  192DOPC  C21626440   5.263   8.187   3.444 -0.1279 -0.1111  0.4742
  192DOPC  H16R26441   5.241   8.161   3.550 -0.3968 -2.8258 -0.1627
  192DOPC  H16S26442   5.319   8.283   3.446  0.1666 -0.2851  0.5488
  192DOPC  C21726443   5.364   8.075   3.412 -0.8151  0.5744  0.1423
  192DOPC  H17R26444   5.307   7.980   3.405 -1.1842  0.8396 -0.5325
  192DOPC  H17S26445   5.436   8.066   3.496 -2.2512  4.7211  2.0871
  192DOPC  C21826446   5.448   8.109   3.293 -0.1805 -0.2497 -0.2062
  192DOPC  H18R26447   5.518   8.025   3.273 -0.0766 -0.4426  0.8888
  192DOPC  H18S26448   5.510   8.200   3.308  0.2292 -0.6774  0.8210
  192DOPC  H18T26449   5.385   8.126   3.203  0.7195  1.5816 -0.5441
  192DOPC   C3326450   4.128   8.529   2.104  0.7769  0.5736 -0.3829
  192DOPC   H3X26451   4.069   0.050   2.029  0.0593 -0.7735 -0.8600
  192DOPC   H3Y26452   4.230   8.512   2.066  0.4152 -0.9100 -0.7426
  192DOPC   C3426453   4.161   0.068   2.233  0.3769 -0.0926 -0.5399
  192DOPC   H4X26454   4.068   0.083   2.291  0.4224 -2.3006  0.1742
  192DOPC   H4Y26455   4.210   0.160   2.194  1.3298 -0.9170 -1.3660
  192DOPC   C3526456   4.255   8.523   2.330 -0.6905 -0.5367  0.0004
  192DOPC   H5X26457   4.344   8.509   2.266 -1.3121 -1.0848 -0.7615
  192DOPC   H5Y26458   4.193   8.445   2.380 -0.1497 -0.2914  1.0833
  192DOPC   C3626459   4.301   0.082   2.445 -0.2800 -0.7799  0.2506
  192DOPC   H6X26460   4.404   0.055   2.476 -0.4844 -0.5837  1.1281
  192DOPC   H6Y26461   4.331   0.186   2.420  0.0825 -0.8294  0.4705
  192DOPC   C3726462   4.201   0.082   2.560  0.0762  0.0795  0.1885
  192DOPC   H7X26463   4.100   0.124   2.541 -0.3218  0.0171  1.9405
  192DOPC   H7Y26464   4.194   8.512   2.595 -1.3003  0.2879  0.6223
  192DOPC   C3826465   4.239   0.175   2.680  0.2982  0.0967 -0.0707
  192DOPC   H8X26466   4.151   0.223   2.727  1.0463  0.6984  0.7343
  192DOPC   H8Y26467   4.300   0.257   2.637 -0.0850  0.9831  1.0400
  192DOPC   C3926468   4.315   0.099   2.792  0.6473  0.4665 -0.2345
  192DOPC   H9X26469   4.424   0.083   2.783  0.8926  1.4127  0.8466
  192DOPC  C31026470   4.257   0.071   2.910  0.8274  0.2313 -0.5160
  192DOPC  H10X26471   4.326   0.019   2.979  0.2318  0.6546  0.4057
  192DOPC  C31126472   4.119   0.090   2.970  0.5484  0.4049 -0.3163
  192DOPC  H11X26473   4.096   0.005   3.038  0.7986  1.1888  0.7666
  192DOPC  H11Y26474   4.041   0.089   2.891  1.4445 -0.6857 -1.2223
  192DOPC  C31226475   4.092   0.226   3.047  0.5435  0.5574  0.5438
  192DOPC  H12X26476   4.138   0.301   2.978  1.9773  0.2644  1.1402
  192DOPC  H12Y26477   4.148   0.227   3.143  1.6668  2.2644 -0.0868
  192DOPC  C31326478   3.936   0.252   3.061  0.1250  0.3792 -0.7527
  192DOPC  H13X26479   3.907   0.358   3.076 -0.6416 -0.0639  1.1399
  192DOPC  H13Y26480   3.879   0.224   2.969  0.5401 -0.6773 -0.7024
  192DOPC  C31426481   3.864   0.184   3.182  0.0601 -0.4657 -0.2350
  192DOPC  H14X26482   3.839   0.078   3.160 -0.2707 -0.5021  0.2833
  192DOPC  H14Y26483   3.942   0.172   3.261  0.7555 -1.3876 -1.0464
  192DOPC  C31526484   3.750   0.265   3.245 -0.6388  0.2979  0.1384
  192DOPC  H15X26485   3.660   0.286   3.183 -0.4379  2.5818  0.5102
  192DOPC  H15Y26486   3.787   0.367   3.270  1.5752 -0.3005 -0.5606
  192DOPC  C31626487   3.686   0.191   3.370  0.6580  0.1467 -0.2195
  192DOPC  H16X26488   3.637   0.098   3.334 -0.5337  0.9083 -0.6275
  192DOPC  H16Y26489   3.760   0.152   3.443 -0.8780  1.8337  2.3938
  192DOPC  C31726490   3.579   0.270   3.444 -0.4588 -0.0566 -0.4717
  192DOPC  H17X26491   3.611   0.376   3.435  1.2133 -0.4684  0.2388
  192DOPC  H17Y26492   3.477   0.265   3.400 -0.4237  1.0360 -0.7026
  192DOPC  C31826493   3.569   0.243   3.590 -0.1051  0.1003 -0.2133
  192DOPC  H18X26494   3.504   0.319   3.636  1.4304  2.0351 -1.1027
  192DOPC  H18Y26495   3.548   0.139   3.624  2.3384 -0.6042 -0.6249
  192DOPC  H18Z26496   3.669   0.261   3.637 -0.4760 -3.1033  2.2231
  193DOPC     N26497   7.266   5.976   1.597  0.1602  0.5360 -0.1545
  193DOPC   C1226498   7.279   6.134   1.594 -0.0293  0.2112  0.0288
  193DOPC  H12A26499   7.243   6.174   1.688  1.2160 -2.0839  1.6191
  193DOPC  H12B26500   7.220   6.184   1.519  2.0054  2.0350 -0.4426
  193DOPC   C1326501   7.309   5.926   1.729 -0.3610  0.3181 -0.0833
  193DOPC  H13A26502   7.259   5.968   1.815  0.9276 -0.6969  1.2136
  193DOPC  H13B26503   7.277   5.824   1.732 -1.5769  0.6833 -0.2763
  193DOPC  H13C26504   7.416   5.931   1.743 -0.3526  2.5915 -0.5451
  193DOPC   C1426505   7.342   5.914   1.486  0.7368 -0.2208 -1.1211
  193DOPC  H14A26506   7.430   5.974   1.470  0.9458 -0.4836 -0.9670
  193DOPC  H14B26507   7.371   5.811   1.498  1.6899  0.2861  1.3827
  193DOPC  H14C26508   7.286   5.920   1.393 -0.3572 -0.0566 -0.4648
  193DOPC   C1526509   7.119   5.938   1.604 -0.6806 -0.2013  0.5208
  193DOPC  H15A26510   7.107   5.834   1.578 -0.5084 -0.1589  0.2591
  193DOPC  H15B26511   7.062   5.991   1.529 -0.2969  0.2613  0.5511
  193DOPC  H15C26512   7.077   5.957   1.701 -3.6603  0.8946 -0.8707
  193DOPC   C1126513   7.427   6.194   1.588  0.1492  0.2897  0.1260
  193DOPC  H11A26514   7.453   6.163   1.485  0.6480  1.0860 -0.0039
  193DOPC  H11B26515   7.405   6.303   1.598 -0.8286  0.0973  0.1814
  193DOPC     P26516   7.497   6.214   1.834 -0.0537  0.2321 -0.4550
  193DOPC   O1326517   7.579   6.339   1.846  0.5832 -0.1029  0.3945
  193DOPC   O1426518   7.530   6.113   1.933 -0.1488  0.2805 -0.2857
  193DOPC   O1226519   7.509   6.142   1.694 -0.2467  0.0606 -0.0549
  193DOPC   O1126520   7.343   6.247   1.849 -0.2615  0.0160 -0.0532
  193DOPC    C126521   7.299   6.369   1.902 -0.4160  0.1984 -0.2173
  193DOPC    HA26522   7.193   6.377   1.870  0.2913 -0.4265 -2.9619
  193DOPC    HB26523   7.354   6.453   1.854  0.7527 -0.1695  0.4352
  193DOPC    C226524   7.321   6.383   2.053  1.4134 -0.1651  0.1254
  193DOPC    HS26525   7.430   6.364   2.069  1.5634  0.8772  0.4221
  193DOPC   O2126526   7.234   6.283   2.116 -0.3388 -0.7784  0.2528
  193DOPC   C2126527   7.278   6.218   2.215  0.0476  0.4522 -0.7533
  193DOPC   O2226528   7.391   6.212   2.256  0.1169 -0.5376  0.3944
  193DOPC   C2226529   7.163   6.148   2.279  0.7615 -0.0598  0.4600
  193DOPC   H2R26530   7.105   6.103   2.196  2.0136  1.3597 -1.2486
  193DOPC   H2S26531   7.101   6.222   2.334  1.1474  1.1587 -0.7082
  193DOPC    C326532   7.297   6.522   2.113 -0.1316 -0.5409 -0.1562
  193DOPC    HX26533   7.188   6.543   2.125 -0.1771 -0.6672 -0.3426
  193DOPC    HY26534   7.327   6.605   2.047 -0.1874  0.3702  0.9368
  193DOPC   O3126535   7.350   6.544   2.239 -0.2273 -0.2033 -1.0667
  193DOPC   C3126536   7.490   6.550   2.240 -0.2730  0.2203  0.3587
  193DOPC   O3226537   7.551   6.575   2.141  0.2733  1.0052  0.1245
  193DOPC   C3226538   7.557   6.540   2.378 -0.6022 -0.1164  0.0229
  193DOPC   H2X26539   7.666   6.522   2.369 -0.4519  1.2088 -1.1639
  193DOPC   H2Y26540   7.566   6.645   2.412  2.4702 -0.6805  1.3227
  193DOPC   C2326541   7.208   6.032   2.377 -0.0699  0.0846 -0.5033
  193DOPC   H3R26542   7.289   5.977   2.326 -0.0711  0.5043 -0.9702
  193DOPC   H3S26543   7.124   5.964   2.404 -1.0188  0.8535 -1.4093
  193DOPC   C2426544   7.243   6.075   2.520 -0.3102 -0.4607  0.1173
  193DOPC   H4R26545   7.327   6.149   2.516  0.5594 -1.3915  0.5984
  193DOPC   H4S26546   7.293   5.995   2.579 -0.5922  0.5793  1.8499
  193DOPC   C2526547   7.128   6.136   2.610 -0.6095  0.0075 -0.0735
  193DOPC   H5R26548   7.048   6.062   2.629 -1.6313  1.1812  0.3218
  193DOPC   H5S26549   7.073   6.214   2.554 -0.5153 -1.1272 -1.8208
  193DOPC   C2626550   7.166   6.190   2.751  0.3774  0.9835  0.1047
  193DOPC   H6R26551   7.073   6.221   2.802  1.3587  1.8661  1.4407
  193DOPC   H6S26552   7.222   6.286   2.747 -1.5016  2.0896 -0.6402
  193DOPC   C2726553   7.237   6.088   2.839 -0.1827  0.0869  0.0491
  193DOPC   H7R26554   7.341   6.091   2.798 -0.1926  0.6883  0.0527
  193DOPC   H7S26555   7.203   5.986   2.811 -0.2090  0.1072  0.0066
  193DOPC   C2826556   7.238   6.114   2.991 -0.0474  0.3135  0.0791
  193DOPC   H8R26557   7.278   6.216   3.009 -2.1730  1.0989  0.7752
  193DOPC   H8S26558   7.316   6.042   3.024 -0.3726  0.1909  0.6054
  193DOPC   C2926559   7.104   6.102   3.068 -0.0012 -0.0005 -0.0607
  193DOPC   H9R26560   7.033   6.184   3.050 -1.5908 -1.5772 -1.4710
  193DOPC  C21026561   7.081   6.009   3.160 -0.0244  0.0746 -0.4574
  193DOPC  H10R26562   6.987   6.010   3.218  0.2179  1.4381 -0.0402
  193DOPC  C21126563   7.178   5.909   3.210 -0.3496 -0.0574 -0.4654
  193DOPC  H11R26564   7.252   5.950   3.282  0.2480  0.2079 -1.2209
  193DOPC  H11S26565   7.250   5.898   3.126  1.8406 -0.7152  1.3890
  193DOPC  C21226566   7.110   5.773   3.270 -0.5703 -0.0117  0.0235
  193DOPC  H12R26567   7.186   5.695   3.292  1.4926  1.3722 -1.7963
  193DOPC  H12S26568   7.041   5.725   3.198  0.2954 -0.4244 -0.5403
  193DOPC  C21326569   7.031   5.803   3.403 -0.0993  0.5196 -0.3541
  193DOPC  H13R26570   6.937   5.860   3.392 -2.0269 -2.5359 -0.6908
  193DOPC  H13S26571   7.104   5.847   3.475  2.4878 -0.2488 -2.3102
  193DOPC  C21426572   6.984   5.665   3.460 -0.5393 -0.5334  0.5077
  193DOPC  H14R26573   7.056   5.581   3.447 -2.4965 -1.8580 -3.0515
  193DOPC  H14S26574   6.894   5.639   3.401  0.9241  0.0671 -2.1457
  193DOPC  C21526575   6.944   5.668   3.609  0.5818  0.7935  0.5489
  193DOPC  H15R26576   7.036   5.688   3.667  0.5672 -0.0250  0.8564
  193DOPC  H15S26577   6.909   5.565   3.629 -2.7090  1.5969 -0.4762
  193DOPC  C21626578   6.848   5.775   3.650  0.2951 -0.0128  0.2018
  193DOPC  H16R26579   6.895   5.874   3.631  2.9284 -0.8782  1.6821
  193DOPC  H16S26580   6.825   5.757   3.758  0.5046 -1.9468 -0.0405
  193DOPC  C21726581   6.710   5.754   3.580 -0.2479  0.5675 -0.0562
  193DOPC  H17R26582   6.679   5.650   3.604  2.0197  0.1751  1.4427
  193DOPC  H17S26583   6.726   5.758   3.470  2.0436 -2.2833  0.0714
  193DOPC  C21826584   6.593   5.846   3.634 -0.2339  0.6524  0.7128
  193DOPC  H18R26585   6.576   5.825   3.742  1.6092  1.3105  1.1604
  193DOPC  H18S26586   6.501   5.821   3.576  0.3282 -1.6129  0.6900
  193DOPC  H18T26587   6.606   5.956   3.628 -0.2617  0.5819 -1.1650
  193DOPC   C3326588   7.492   6.444   2.472  0.1752 -0.9187 -0.2315
  193DOPC   H3X26589   7.498   6.340   2.434  0.2080 -0.8968 -0.2862
  193DOPC   H3Y26590   7.385   6.475   2.471  1.0515  2.4895 -1.2972
  193DOPC   C3426591   7.544   6.448   2.617 -0.3317 -0.6581  0.2432
  193DOPC   H4X26592   7.493   6.530   2.673  2.5208  1.2626  0.2783
  193DOPC   H4Y26593   7.655   6.451   2.613 -0.2170 -2.6344  0.9267
  193DOPC   C3526594   7.529   6.319   2.699 -0.1248 -0.0453 -0.4400
  193DOPC   H5X26595   7.541   6.235   2.628  3.1085 -1.7752  1.9018
  193DOPC   H5Y26596   7.424   6.309   2.733 -0.2024 -0.7694 -0.8778
  193DOPC   C3626597   7.618   6.281   2.819  0.2770  0.0680  0.0645
  193DOPC   H6X26598   7.587   6.193   2.878  1.5336  0.2472  1.0557
  193DOPC   H6Y26599   7.722   6.255   2.788  0.6289  0.0116  1.2323
  193DOPC   C3726600   7.634   6.388   2.932  0.2924 -0.1837  0.6385
  193DOPC   H7X26601   7.533   6.429   2.955 -0.7738 -1.4982 -1.3354
  193DOPC   H7Y26602   7.653   6.335   3.028 -1.9008 -2.8548 -0.2455
  193DOPC   C3826603   7.734   6.503   2.896 -0.5992  0.3249 -0.4910
  193DOPC   H8X26604   7.689   6.564   2.815 -0.8083  0.0484 -0.5841
  193DOPC   H8Y26605   7.818   6.449   2.847 -0.4251  0.4185 -0.2961
  193DOPC   C3926606   7.785   6.576   3.018 -0.0996  0.1078 -0.5880
  193DOPC   H9X26607   7.701   6.616   3.076 -0.2642 -0.0011 -0.7485
  193DOPC  C31026608   7.910   6.566   3.072  0.0895 -0.1093 -0.2217
  193DOPC  H10X26609   7.938   6.649   3.138  1.6329 -0.4848 -0.3558
  193DOPC  C31126610   8.028   6.487   3.030  0.5966 -0.1208 -0.1023
  193DOPC  H11X26611   7.991   6.386   3.004 -2.3301  0.9569 -0.5647
  193DOPC  H11Y26612   8.099   6.465   3.112 -0.5493 -0.4124  0.8353
  193DOPC  C31226613   8.118   6.541   2.922 -0.1092  0.5128  0.0267
  193DOPC  H12X26614   8.056   6.567   2.833 -0.6139 -1.5887 -0.2913
  193DOPC  H12Y26615   8.195   6.464   2.900  2.9005  2.5705  2.4875
  193DOPC  C31326616   8.199   6.653   2.975  0.3758  0.2497 -0.7137
  193DOPC  H13X26617   8.131   6.736   3.003 -1.0435 -2.0226  3.5228
  193DOPC  H13Y26618   8.257   6.643   3.069 -0.1431  0.2444 -0.3892
  193DOPC  C31426619   8.294   6.718   2.873  0.5425 -0.0404  0.4452
  193DOPC  H14X26620   8.370   6.643   2.843  1.2890  0.3561  1.3080
  193DOPC  H14Y26621   8.233   6.732   2.781  1.1349 -1.0335 -0.1156
  193DOPC  C31526622   8.356   6.850   2.921 -0.0434  0.0307 -0.1321
  193DOPC  H15X26623   8.440   6.825   2.989 -0.4158 -0.3904  0.1825
  193DOPC  H15Y26624   8.280   6.907   2.978  1.4146  2.1173 -0.1688
  193DOPC  C31626625   8.394   6.931   2.792  0.4320 -0.5264 -0.2830
  193DOPC  H16X26626   8.454   6.869   2.721 -1.3613 -0.9455 -1.4925
  193DOPC  H16Y26627   8.305   6.969   2.737 -0.0726 -0.6261  0.4578
  193DOPC  C31726628   8.488   7.054   2.819  0.4345 -0.2256  0.3197
  193DOPC  H17X26629   8.480   7.105   2.720 -1.9811  1.1014  1.1246
  193DOPC  H17Y26630   8.426   7.119   2.884  1.4173  0.5909  0.4661
  193DOPC  C31826631   0.099   7.024   2.853 -0.5634 -0.2527  0.6802
  193DOPC  H18X26632   0.145   6.966   2.770  1.8557 -1.0160  2.4383
  193DOPC  H18Y26633   0.155   7.120   2.849 -1.4725  0.2864  0.6561
  193DOPC  H18Z26634   0.117   6.987   2.956  0.2809 -0.2865  0.5289
  194DOPC     N26635   1.237   6.730   1.456 -0.4787  0.1939  0.1143
  194DOPC   C1226636   1.282   6.642   1.571 -0.0806  0.0041 -0.3726
  194DOPC  H12A26637   1.240   6.682   1.662 -0.4080 -0.6743 -0.2205
  194DOPC  H12B26638   1.390   6.649   1.573 -0.1294  0.8015  0.8820
  194DOPC   C1326639   1.302   6.669   1.339 -0.4496  0.3014 -0.1115
  194DOPC  H13A26640   1.405   6.704   1.336 -0.3289 -0.0665 -0.3148
  194DOPC  H13B26641   1.319   6.564   1.358  0.0524  0.2219 -0.9130
  194DOPC  H13C26642   1.256   6.692   1.244  2.8277  2.1487 -1.4320
  194DOPC   C1426643   1.296   6.864   1.471 -0.8059 -0.0172  0.0092
  194DOPC  H14A26644   1.271   6.926   1.386 -0.6271  1.3098  0.8771
  194DOPC  H14B26645   1.244   6.926   1.543 -1.0121  2.1590 -1.9123
  194DOPC  H14C26646   1.402   6.871   1.490 -0.3693  0.6544 -2.4032
  194DOPC   C1526647   1.091   6.738   1.436  0.0781 -0.4969  0.0142
  194DOPC  H15A26648   1.066   6.808   1.357  3.0093  2.6784  1.6152
  194DOPC  H15B26649   1.050   6.797   1.517  1.7015  1.8461 -0.7655
  194DOPC  H15C26650   1.038   6.644   1.429  0.3264 -0.7011  0.7656
  194DOPC   C1126651   1.246   6.490   1.574  0.1994  0.1420 -0.0825
  194DOPC  H11A26652   1.254   6.453   1.678 -0.5101  0.9870  0.2745
  194DOPC  H11B26653   1.142   6.475   1.539  0.0898  3.6058 -1.6905
  194DOPC     P26654   1.475   6.364   1.525 -0.3324  0.4405 -0.0370
  194DOPC   O1326655   1.565   6.480   1.553 -0.3510 -0.5320  0.1586
  194DOPC   O1426656   1.520   6.265   1.431  0.2200 -0.3406  0.1149
  194DOPC   O1226657   1.329   6.425   1.480 -0.1423 -0.4938 -0.1917
  194DOPC   O1126658   1.451   6.294   1.664  0.6366 -0.2034 -0.7770
  194DOPC    C126659   1.553   6.261   1.753 -0.2142 -0.7946 -0.0318
  194DOPC    HA26660   1.656   6.260   1.711  0.1057  2.6565  0.3812
  194DOPC    HB26661   1.549   6.157   1.793 -0.6725 -0.6661  0.2601
  194DOPC    C226662   1.556   6.355   1.879 -0.1741 -0.2120  0.4370
  194DOPC    HS26663   1.592   6.298   1.968  1.4938 -0.8638 -0.6001
  194DOPC   O2126664   1.431   6.402   1.911  0.8022  0.1846  0.7929
  194DOPC   C2126665   1.344   6.321   1.976 -0.6064 -0.1919  0.6300
  194DOPC   O2226666   1.368   6.204   2.005 -0.4203  0.8547  0.1849
  194DOPC   C2226667   1.209   6.392   1.997 -0.6457 -0.0059 -0.4490
  194DOPC   H2R26668   1.153   6.348   2.082  0.8974  1.6101  1.5241
  194DOPC   H2S26669   1.141   6.368   1.912 -0.0925 -2.3438 -0.2892
  194DOPC    C326670   1.636   6.482   1.857  0.5831 -0.1226 -0.5711
  194DOPC    HX26671   1.590   6.546   1.779  1.3760 -1.1988 -1.9659
  194DOPC    HY26672   1.736   6.445   1.827  0.6107 -2.3647  1.9590
  194DOPC   O3126673   1.634   6.563   1.987  0.0886  0.2454 -0.0887
  194DOPC   C3126674   1.762   6.601   2.024  0.5009  0.0439  0.1532
  194DOPC   O3226675   1.855   6.599   1.944 -0.7320  0.0035  0.0995
  194DOPC   C3226676   1.763   6.644   2.170  0.2248  0.6257  0.1949
  194DOPC   H2X26677   1.772   6.755   2.177 -0.0002  0.6560  0.0103
  194DOPC   H2Y26678   1.677   6.593   2.218 -0.1711  0.4206 -0.6983
  194DOPC   C2326679   1.205   6.546   2.000  0.4225  0.1553  0.0984
  194DOPC   H3R26680   1.104   6.587   1.976  0.9499  1.3695 -0.0954
  194DOPC   H3S26681   1.275   6.591   1.927 -0.3986  0.5350 -0.4665
  194DOPC   C2426682   1.252   6.596   2.132 -0.2743  0.3490  0.0954
  194DOPC   H4R26683   1.341   6.533   2.152 -1.1493 -0.9281  0.1412
  194DOPC   H4S26684   1.181   6.580   2.216  0.2028 -2.9208 -0.0067
  194DOPC   C2526685   1.289   6.740   2.106 -0.7896  0.2238  0.4014
  194DOPC   H5R26686   1.212   6.802   2.055  0.3029  0.2613 -1.3051
  194DOPC   H5S26687   1.366   6.742   2.026 -0.1310 -1.1980  0.9760
  194DOPC   C2626688   1.343   6.802   2.234 -0.4410  0.8645 -0.4019
  194DOPC   H6R26689   1.394   6.897   2.210 -1.6306  1.4369 -0.7226
  194DOPC   H6S26690   1.414   6.742   2.296 -1.7304  1.2280  1.5096
  194DOPC   C2726691   1.232   6.857   2.325  0.1615  0.4157  0.1574
  194DOPC   H7R26692   1.159   6.774   2.338 -0.9253  1.1992 -0.7460
  194DOPC   H7S26693   1.166   6.930   2.274 -1.3140 -0.9150  0.0917
  194DOPC   C2826694   1.276   6.914   2.460  0.0477  0.9205  0.4849
  194DOPC   H8R26695   1.342   6.840   2.511  0.4387  0.2974 -0.8777
  194DOPC   H8S26696   1.182   6.909   2.520 -0.8615  0.4014 -0.9328
  194DOPC   C2926697   1.335   7.052   2.442 -0.1870 -0.6130  0.2617
  194DOPC   H9R26698   1.444   7.048   2.428  0.1356  1.2216  1.7774
  194DOPC  C21026699   1.268   7.167   2.462  0.5446 -0.1152  0.8803
  194DOPC  H10R26700   1.317   7.266   2.452  0.8179 -0.3245  0.0690
  194DOPC  C21126701   1.134   7.177   2.526 -0.2268  0.1118 -0.3012
  194DOPC  H11R26702   1.076   7.084   2.510  0.1908 -0.4212  1.1066
  194DOPC  H11S26703   1.070   7.254   2.477 -0.7221 -1.1551 -1.7200
  194DOPC  C21226704   1.133   7.215   2.676  0.0236 -0.1385  0.3934
  194DOPC  H12R26705   1.175   7.317   2.683 -0.9824  0.2758  0.6942
  194DOPC  H12S26706   1.200   7.140   2.723  1.4060  0.2870 -0.8250
  194DOPC  C21326707   0.994   7.189   2.730  0.0118  0.3566  0.4246
  194DOPC  H13R26708   0.976   7.080   2.738  1.5227  0.0712  0.3420
  194DOPC  H13S26709   0.922   7.238   2.662 -1.0586 -1.0474  0.5215
  194DOPC  C21426710   0.977   7.254   2.866 -0.2544  0.7695  0.0485
  194DOPC  H14R26711   0.992   7.361   2.843  1.5444  0.1315 -2.0750
  194DOPC  H14S26712   1.062   7.227   2.933 -0.2654  0.1350 -0.1848
  194DOPC  C21526713   0.840   7.211   2.923 -0.0177 -0.0133 -0.4509
  194DOPC  H15R26714   0.834   7.101   2.933 -1.4671  0.0116 -0.7837
  194DOPC  H15S26715   0.756   7.236   2.855  0.3978 -1.8695 -1.7354
  194DOPC  C21626716   0.803   7.290   3.052 -0.1143 -0.2815  0.3471
  194DOPC  H16R26717   0.821   7.398   3.035 -1.4680 -0.2888 -1.4680
  194DOPC  H16S26718   0.861   7.249   3.138 -0.4998  3.0041  2.3543
  194DOPC  C21726719   0.659   7.283   3.104  0.5417  0.5151  0.1391
  194DOPC  H17R26720   0.638   7.175   3.120 -0.9492  0.9496  1.3956
  194DOPC  H17S26721   0.586   7.308   3.023  0.5108 -0.9171 -0.3010
  194DOPC  C21826722   0.648   7.357   3.230 -0.0993  0.4749 -0.2387
  194DOPC  H18R26723   0.671   7.465   3.215  1.2257 -0.0506 -2.3541
  194DOPC  H18S26724   0.732   7.320   3.293 -0.5700  0.5771  0.4610
  194DOPC  H18T26725   0.555   7.350   3.290 -0.7415 -0.2993 -1.3088
  194DOPC   C3326726   1.880   6.575   2.243 -0.5104  0.0189 -0.0397
  194DOPC   H3X26727   1.974   6.596   2.188  0.8640 -0.3768  2.0214
  194DOPC   H3Y26728   1.868   6.465   2.233  0.6197 -0.3497  2.0326
  194DOPC   C3426729   1.889   6.617   2.389  0.4455  1.4884  0.4099
  194DOPC   H4X26730   1.919   6.723   2.396 -3.1093  2.7004 -0.6170
  194DOPC   H4Y26731   1.968   6.561   2.444 -0.7983 -0.5286  0.2513
  194DOPC   C3526732   1.755   6.589   2.468 -0.6988 -0.0728 -0.0931
  194DOPC   H5X26733   1.727   6.482   2.470  1.7407 -0.7807 -0.3781
  194DOPC   H5Y26734   1.666   6.636   2.422 -2.0910 -1.7063  0.8318
  194DOPC   C3626735   1.764   6.648   2.610 -0.1487 -0.6860 -0.3729
  194DOPC   H6X26736   1.864   6.614   2.644 -0.8955 -3.3574 -0.6020
  194DOPC   H6Y26737   1.761   6.759   2.614  3.4110 -0.4776  3.1736
  194DOPC   C3726738   1.660   6.595   2.713  0.2192  0.7064  0.1619
  194DOPC   H7X26739   1.560   6.605   2.666  1.0979  1.2353 -1.7259
  194DOPC   H7Y26740   1.672   6.486   2.731 -0.8074  0.3119 -1.3544
  194DOPC   C3826741   1.665   6.666   2.854  0.0532  0.1966 -0.4620
  194DOPC   H8X26742   1.643   6.775   2.851 -0.1653  0.2197  1.1397
  194DOPC   H8Y26743   1.768   6.649   2.892  0.4459 -3.9974 -2.7729
  194DOPC   C3926744   1.566   6.612   2.954 -0.9612 -0.3553 -0.0024
  194DOPC   H9X26745   1.481   6.556   2.913 -1.5616 -0.0846  0.8443
  194DOPC  C31026746   1.570   6.632   3.084 -0.0743 -0.3317  0.4561
  194DOPC  H10X26747   1.482   6.595   3.140 -0.9520  0.5054 -0.3326
  194DOPC  C31126748   1.680   6.697   3.161  0.1403 -0.0208 -0.9325
  194DOPC  H11X26749   1.773   6.715   3.103  0.4331  0.5162 -0.3121
  194DOPC  H11Y26750   1.699   6.630   3.248 -0.8148  0.2879 -0.4699
  194DOPC  C31226751   1.621   6.826   3.211  0.1903 -0.1699  0.3722
  194DOPC  H12X26752   1.701   6.867   3.276 -0.0903  0.4212  0.3480
  194DOPC  H12Y26753   1.532   6.818   3.277  0.5903 -2.3815  0.7411
  194DOPC  C31326754   1.602   6.929   3.099  0.5093 -0.0873 -0.4579
  194DOPC  H13X26755   1.703   6.949   3.057  1.5835 -1.1036  1.4930
  194DOPC  H13Y26756   1.535   6.899   3.016  0.0271  1.7710 -0.7829
  194DOPC  C31426757   1.560   7.063   3.160 -0.3580  0.6196 -0.3080
  194DOPC  H14X26758   1.499   7.034   3.248  0.4349 -2.4065 -0.6589
  194DOPC  H14Y26759   1.646   7.120   3.200 -0.0229  0.8683 -1.3621
  194DOPC  C31526760   1.488   7.146   3.052  0.1052  0.3986 -0.0428
  194DOPC  H15X26761   1.415   7.216   3.097 -2.2131 -0.6849 -1.8970
  194DOPC  H15Y26762   1.419   7.092   2.984 -1.8091  2.1732  0.3960
  194DOPC  C31626763   1.583   7.243   2.973 -0.1484 -0.9112  0.9059
  194DOPC  H16X26764   1.639   7.316   3.035 -1.1586  0.2132  0.5404
  194DOPC  H16Y26765   1.654   7.170   2.929 -0.8485 -1.8392  1.2813
  194DOPC  C31726766   1.522   7.308   2.846  0.5560 -0.2669 -0.2056
  194DOPC  H17X26767   1.423   7.352   2.868  2.4006  4.6738 -0.3589
  194DOPC  H17Y26768   1.582   7.398   2.819 -0.6803  0.5486 -0.3024
  194DOPC  C31826769   1.525   7.224   2.716 -0.2179 -0.1618 -0.0112
  194DOPC  H18X26770   1.496   7.288   2.630  2.1548 -0.1746 -0.8756
  194DOPC  H18Y26771   1.628   7.194   2.689 -0.2188  0.8434 -1.1922
  194DOPC  H18Z26772   1.463   7.132   2.720  2.7358 -2.4953 -3.0621
  195DOPC     N26773   7.515   4.848   1.778 -0.6478 -0.7141 -0.2679
  195DOPC   C1226774   7.397   4.767   1.827 -0.3268  0.7212  0.0774
  195DOPC  H12A26775   7.362   4.794   1.925 -3.6429  0.2034 -0.8249
  195DOPC  H12B26776   7.429   4.664   1.829 -1.4869  0.3364 -0.1551
  195DOPC   C1326777   7.628   4.851   1.875 -0.4073 -0.0736 -0.1900
  195DOPC  H13A26778   7.669   4.755   1.902  2.7501  0.4200 -2.7081
  195DOPC  H13B26779   7.708   4.903   1.826 -1.4908 -0.4273 -2.4580
  195DOPC  H13C26780   7.600   4.897   1.969 -0.6201 -3.7212  1.7424
  195DOPC   C1426781   7.486   4.997   1.759 -0.4751  0.2718 -0.6959
  195DOPC  H14A26782   7.480   5.046   1.855 -1.7964  0.0299 -0.6396
  195DOPC  H14B26783   7.558   5.058   1.706 -0.9207  0.5059 -1.0419
  195DOPC  H14C26784   7.392   5.021   1.712 -1.3666 -0.3449  0.7159
  195DOPC   C1526785   7.572   4.806   1.646 -0.1010 -0.3412  1.1764
  195DOPC  H15A26786   7.596   4.700   1.651  2.4698 -0.1812 -2.9590
  195DOPC  H15B26787   7.663   4.856   1.615 -0.9300 -0.5613 -1.8631
  195DOPC  H15C26788   7.496   4.809   1.570  0.4531  0.0724  0.6313
  195DOPC   C1126789   7.264   4.778   1.738  0.2915  0.4027 -1.0477
  195DOPC  H11A26790   7.308   4.773   1.636 -0.3832  0.5476 -1.3473
  195DOPC  H11B26791   7.197   4.695   1.768  1.7332 -0.0412  1.2141
  195DOPC     P26792   7.116   4.946   1.875 -0.0590 -0.1004  0.6002
  195DOPC   O1326793   6.986   4.876   1.852 -0.7646  0.9623  0.0761
  195DOPC   O1426794   7.111   5.095   1.871 -0.0512  0.1125  0.1400
  195DOPC   O1226795   7.213   4.906   1.757  0.2624 -0.4979  0.4065
  195DOPC   O1126796   7.183   4.888   2.011 -0.1200 -0.5414  0.2418
  195DOPC    C126797   7.261   4.972   2.103  0.2671 -0.4426 -0.8938
  195DOPC    HA26798   7.253   5.078   2.070 -0.2676 -0.2973 -0.3122
  195DOPC    HB26799   7.368   4.944   2.097 -0.0890 -1.8605 -0.8656
  195DOPC    C226800   7.206   4.974   2.249 -0.1430 -0.4040 -0.3729
  195DOPC    HS26801   7.257   5.051   2.310 -0.2427 -1.4341  1.0585
  195DOPC   O2126802   7.221   4.842   2.300 -0.7330  0.3686 -0.0480
  195DOPC   C2126803   7.312   4.815   2.386  0.3131 -0.1389  0.6794
  195DOPC   O2226804   7.407   4.889   2.418  0.8712  0.0797 -0.4891
  195DOPC   C2226805   7.274   4.685   2.457  0.6755 -0.0979  0.1657
  195DOPC   H2R26806   7.285   4.606   2.379 -0.1702 -1.7223  1.6098
  195DOPC   H2S26807   7.165   4.690   2.480  0.1940 -0.6863 -1.7706
  195DOPC    C326808   7.054   5.011   2.239 -0.6197 -0.4606 -0.0932
  195DOPC    HX26809   6.998   4.919   2.210  0.7291 -1.2387 -0.3053
  195DOPC    HY26810   7.023   5.084   2.161 -2.1779 -0.8324  0.1466
  195DOPC   O3126811   7.004   5.055   2.369 -0.2925  0.0760  0.3240
  195DOPC   C3126812   7.012   5.182   2.405  0.5091 -0.3924  0.4088
  195DOPC   O3226813   7.048   5.276   2.335  0.5593 -0.6844  0.5130
  195DOPC   C3226814   6.987   5.192   2.555  0.4318  0.4561  0.1215
  195DOPC   H2X26815   6.999   5.094   2.605  0.5948 -0.3725 -1.4651
  195DOPC   H2Y26816   7.060   5.260   2.603  1.2000 -0.5306  0.3700
  195DOPC   C2326817   7.359   4.658   2.580  0.4938  0.1009 -0.0081
  195DOPC   H3R26818   7.466   4.677   2.556  0.8077 -0.4794  0.8806
  195DOPC   H3S26819   7.357   4.549   2.602 -1.9528  0.2007  0.5455
  195DOPC   C2426820   7.310   4.756   2.690 -0.3477  0.6393 -0.4024
  195DOPC   H4R26821   7.202   4.734   2.708 -0.4939  1.6762  0.1030
  195DOPC   H4S26822   7.302   4.861   2.653  1.4933  0.6313 -0.8888
  195DOPC   C2526823   7.393   4.744   2.819  0.3213 -1.0350 -0.4262
  195DOPC   H5R26824   7.498   4.747   2.784 -0.6154 -0.1331 -3.4180
  195DOPC   H5S26825   7.370   4.652   2.878  0.7328 -0.3045  0.9229
  195DOPC   C2626826   7.365   4.871   2.906 -0.6840  0.4420  0.4151
  195DOPC   H6R26827   7.396   4.950   2.834 -0.6261  0.6237  0.6394
  195DOPC   H6S26828   7.444   4.859   2.983  0.8781 -0.6849 -1.2780
  195DOPC   C2726829   7.214   4.868   2.959 -0.2164 -0.0393  0.3659
  195DOPC   H7R26830   7.181   4.764   2.978  3.8866 -1.5058  0.3796
  195DOPC   H7S26831   7.150   4.908   2.878 -1.3632  2.4557  2.3519
  195DOPC   C2826832   7.211   4.960   3.077  0.2387  0.3246  0.6032
  195DOPC   H8R26833   7.277   5.046   3.052 -0.5127  0.7205 -0.0641
  195DOPC   H8S26834   7.246   4.911   3.171 -0.3806 -0.4984  0.4114
  195DOPC   C2926835   7.070   5.006   3.101  0.0928 -0.5099 -0.9151
  195DOPC   H9R26836   7.002   4.927   3.135  0.5481  0.3072  2.1292
  195DOPC  C21026837   7.030   5.129   3.076  0.1527  0.1674 -0.0663
  195DOPC  H10R26838   6.922   5.154   3.078 -0.1374 -0.9483 -0.9866
  195DOPC  C21126839   7.115   5.243   3.019  0.1139 -0.2970 -0.1041
  195DOPC  H11R26840   7.077   5.267   2.917  0.1116 -0.0407 -0.0444
  195DOPC  H11S26841   7.219   5.222   2.985  0.3809  0.8404 -0.0495
  195DOPC  C21226842   7.128   5.369   3.110 -0.3662  0.4846 -0.4484
  195DOPC  H12R26843   7.157   5.336   3.212  2.8307  2.1675 -0.6887
  195DOPC  H12S26844   7.029   5.420   3.108  0.0566  1.3562  0.3253
  195DOPC  C21326845   7.228   5.475   3.063 -0.3842  0.1337  0.9655
  195DOPC  H13R26846   7.326   5.428   3.038 -0.9925 -0.0809 -1.2109
  195DOPC  H13S26847   7.250   5.538   3.152  1.9107 -0.3909  0.8451
  195DOPC  C21426848   7.178   5.554   2.939 -0.5836 -0.9635 -0.1159
  195DOPC  H14R26849   7.082   5.609   2.944 -0.3328 -0.4049 -1.1958
  195DOPC  H14S26850   7.167   5.485   2.852  0.4715  0.0922 -1.1245
  195DOPC  C21526851   7.277   5.665   2.882  0.0562  0.7400  0.1353
  195DOPC  H15R26852   7.266   5.765   2.931 -1.5807  0.6230  0.0578
  195DOPC  H15S26853   7.244   5.676   2.777  1.3518 -2.1439 -0.6539
  195DOPC  C21626854   7.423   5.622   2.892 -0.6830 -0.0169  0.9108
  195DOPC  H16R26855   7.447   5.525   2.842 -1.5621  1.7572 -3.4033
  195DOPC  H16S26856   7.444   5.624   3.001 -0.6548 -0.2372  0.9108
  195DOPC  C21726857   7.523   5.728   2.831 -0.0094 -0.0309  0.7826
  195DOPC  H17R26858   7.484   5.785   2.744  1.0892  0.4131  0.5625
  195DOPC  H17S26859   7.623   5.689   2.801 -1.0740  0.0251 -3.4832
  195DOPC  C21826860   7.551   5.837   2.936 -0.4250  0.0818 -0.0377
  195DOPC  H18R26861   7.451   5.881   2.958  0.2522  1.8049 -0.2550
  195DOPC  H18S26862   7.602   5.922   2.887 -2.1109 -1.0275 -4.1220
  195DOPC  H18T26863   7.601   5.789   3.023 -0.1523 -2.2630 -1.3875
  195DOPC   C3326864   6.850   5.247   2.577  0.5235  0.0752  0.4806
  195DOPC   H3X26865   6.778   5.174   2.533  2.4384 -2.4041  1.2288
  195DOPC   H3Y26866   6.825   5.341   2.524 -2.6983 -2.1414 -2.3674
  195DOPC   C3426867   6.800   5.268   2.719 -0.4658 -0.0936  0.7740
  195DOPC   H4X26868   6.723   5.348   2.724  0.1673  0.8300 -2.2626
  195DOPC   H4Y26869   6.887   5.308   2.776 -0.7942  0.8877  0.6062
  195DOPC   C3526870   6.750   5.156   2.805  0.2279 -0.5052 -0.5569
  195DOPC   H5X26871   6.828   5.080   2.827  0.3444  0.1106  1.3132
  195DOPC   H5Y26872   6.668   5.102   2.755  0.2178  0.6922 -1.8988
  195DOPC   C3626873   6.680   5.198   2.934 -0.1136  0.1654  0.3578
  195DOPC   H6X26874   6.755   5.260   2.989  0.2989  0.1042 -0.1279
  195DOPC   H6Y26875   6.590   5.256   2.902  0.4936  0.4695 -0.8723
  195DOPC   C3726876   6.638   5.080   3.018 -0.7274 -0.2079 -0.6761
  195DOPC   H7X26877   6.584   5.006   2.955 -2.0839  1.1228 -1.1271
  195DOPC   H7Y26878   6.733   5.030   3.048 -1.6314 -1.0367  0.9372
  195DOPC   C3826879   6.564   5.125   3.145  0.0075 -0.3042  0.4835
  195DOPC   H8X26880   6.467   5.160   3.103  0.2229  0.4173  0.5861
  195DOPC   H8Y26881   6.617   5.206   3.199  1.1140 -0.9275  0.3675
  195DOPC   C3926882   6.528   5.019   3.249 -0.8016 -0.1893  0.2561
  195DOPC   H9X26883   6.419   5.015   3.260 -0.7208 -0.8893  0.9249
  195DOPC  C31026884   6.609   4.945   3.331 -0.1982 -0.2681  0.2392
  195DOPC  H10X26885   6.572   4.873   3.405 -0.8256 -1.2691 -1.0135
  195DOPC  C31126886   6.759   4.940   3.323 -0.3212 -0.5648 -0.0309
  195DOPC  H11X26887   6.795   5.002   3.239 -2.3646 -0.1179 -0.6150
  195DOPC  H11Y26888   6.784   4.832   3.312  2.1012 -0.2993  1.7732
  195DOPC  C31226889   6.818   4.987   3.456  0.3219  0.8004 -0.1190
  195DOPC  H12X26890   6.795   5.094   3.477  1.5072  0.4810  3.4525
  195DOPC  H12Y26891   6.929   4.996   3.449  0.7155 -1.7444  1.6427
  195DOPC  C31326892   6.790   4.887   3.580  0.1239  0.1734 -0.7697
  195DOPC  H13X26893   6.682   4.865   3.596  0.6567 -3.0191 -0.8266
  195DOPC  H13Y26894   6.835   4.787   3.562  1.2740  0.6635 -0.6923
  195DOPC  C31426895   6.856   4.937   3.707  0.0884  0.0662 -0.1571
  195DOPC  H14X26896   6.962   4.968   3.696  0.2592  0.3736  1.8671
  195DOPC  H14Y26897   6.792   5.023   3.737 -2.0894 -1.0791 -1.2364
  195DOPC  C31526898   6.845   4.834   3.821 -0.5254  0.3340 -0.8253
  195DOPC  H15X26899   6.891   4.741   3.781 -0.2135  0.7749 -1.5108
  195DOPC  H15Y26900   6.738   4.821   3.846 -1.1200  2.0649 -2.3049
  195DOPC  C31626901   6.923   4.883   3.942  0.1912 -0.5985  0.2386
  195DOPC  H16X26902   6.942   4.798   4.011  0.1472 -0.3564  0.5473
  195DOPC  H16Y26903   7.025   4.915   3.912  0.1693  0.6215  1.3979
  195DOPC  C31726904   6.850   4.994   4.030 -0.1374 -0.1345 -0.2585
  195DOPC  H17X26905   6.916   5.024   4.114 -0.6217 -3.1275  1.3420
  195DOPC  H17Y26906   6.827   5.077   3.959  1.3122 -0.5732 -1.2873
  195DOPC  C31826907   6.716   4.949   4.088 -0.5514 -0.4105  0.1498
  195DOPC  H18X26908   6.669   5.034   4.142 -2.1092 -1.2597  0.1771
  195DOPC  H18Y26909   6.649   4.915   4.006  1.5200  0.3088 -1.9544
  195DOPC  H18Z26910   6.742   4.861   4.152  2.2557  1.1033  1.2746
  196DOPC     N26911   2.042   8.159   1.514  0.0832  0.4102  0.3290
  196DOPC   C1226912   1.996   8.277   1.609  0.3530  0.1126 -1.0957
  196DOPC  H12A26913   1.923   8.338   1.557 -0.4068 -0.1639 -0.3879
  196DOPC  H12B26914   2.082   8.338   1.629 -1.2551  2.7972 -1.8542
  196DOPC   C1326915   2.109   8.222   1.399  0.5657 -0.5148 -0.5904
  196DOPC  H13A26916   2.048   8.306   1.368  1.3310  0.1885 -0.2221
  196DOPC  H13B26917   2.213   8.249   1.412  0.3823  1.0636 -2.1228
  196DOPC  H13C26918   2.104   8.152   1.317 -2.7805 -0.6423 -0.4103
  196DOPC   C1426919   1.932   8.082   1.455  0.4322 -0.1417  1.0587
  196DOPC  H14A26920   1.974   7.998   1.403  0.6306  0.5362  0.1074
  196DOPC  H14B26921   1.863   8.067   1.538 -1.7970  1.4064 -0.3966
  196DOPC  H14C26922   1.878   8.145   1.386 -0.0449 -0.6282  0.9812
  196DOPC   C1526923   2.136   8.067   1.582 -0.4135  0.4505  0.1546
  196DOPC  H15A26924   2.081   8.015   1.659  1.3320  0.5457  1.5280
  196DOPC  H15B26925   2.217   8.119   1.631 -1.9592  1.7677  1.4267
  196DOPC  H15C26926   2.166   7.998   1.505 -1.5000 -0.3753  0.4423
  196DOPC   C1126927   1.929   8.238   1.744  0.0601  0.6682 -0.8961
  196DOPC  H11A26928   1.994   8.175   1.809 -0.1202 -0.4338 -1.7603
  196DOPC  H11B26929   1.906   8.329   1.804 -0.1409  1.6116 -2.3642
  196DOPC     P26930   1.679   8.228   1.650 -0.1207 -0.4973 -0.2573
  196DOPC   O1326931   1.588   8.111   1.617 -0.0072  0.7000  0.1628
  196DOPC   O1426932   1.712   8.320   1.535  0.0800 -0.2773 -0.0530
  196DOPC   O1226933   1.807   8.167   1.719 -0.0202 -0.6441 -0.4580
  196DOPC   O1126934   1.613   8.311   1.765 -0.4304 -0.1063  0.1839
  196DOPC    C126935   1.515   8.257   1.852 -0.4272  0.7445  0.0920
  196DOPC    HA26936   1.548   8.160   1.895  1.8742  0.5799 -1.8732
  196DOPC    HB26937   1.428   8.227   1.790 -0.5633  0.5908  0.3536
  196DOPC    C226938   1.465   8.341   1.971  0.4712 -0.3712 -0.3359
  196DOPC    HS26939   1.441   8.441   1.928 -2.0023 -0.9662 -0.5111
  196DOPC   O2126940   1.558   8.342   2.076  0.2590 -0.0111 -0.3319
  196DOPC   C2126941   1.664   8.413   2.062  0.0202 -0.3820 -0.1665
  196DOPC   O2226942   1.672   8.506   1.984 -0.7203 -0.0213  0.2039
  196DOPC   C2226943   1.767   8.393   2.174  0.2156  0.5038  0.5060
  196DOPC   H2R26944   1.861   8.440   2.139 -1.0602  1.8054 -1.3677
  196DOPC   H2S26945   1.775   8.287   2.207  2.3543  0.5767  0.3252
  196DOPC    C326946   1.329   8.275   2.021  0.6249  0.7215  0.3144
  196DOPC    HX26947   1.350   8.169   2.044  1.1782  0.5097 -1.0418
  196DOPC    HY26948   1.263   8.276   1.931 -1.2088  0.3159  1.5892
  196DOPC   O3126949   1.268   8.355   2.130 -0.9030  0.3077 -0.1169
  196DOPC   C3126950   1.292   8.309   2.258 -0.7196  0.1261 -0.1369
  196DOPC   O3226951   1.344   8.199   2.286  0.1982  0.0755 -0.5170
  196DOPC   C3226952   1.231   8.411   2.359 -0.2015 -0.0546  0.3899
  196DOPC   H2X26953   1.291   8.501   2.334  1.5952 -1.7705 -1.9932
  196DOPC   H2Y26954   1.121   8.419   2.350 -0.2014  0.6696  0.9840
  196DOPC   C2326955   1.724   8.472   2.294  0.2361 -0.0534  0.1027
  196DOPC   H3R26956   1.615   8.456   2.312 -0.2294  0.9815 -1.5540
  196DOPC   H3S26957   1.733   0.045   2.271 -2.7583  0.7126  1.9334
  196DOPC   C2426958   1.805   8.453   2.423 -1.1263  0.2237  0.6536
  196DOPC   H4R26959   1.910   8.462   2.387 -1.5164  0.2040 -0.5523
  196DOPC   H4S26960   1.792   8.347   2.455  1.1201 -1.3728 -2.9756
  196DOPC   C2526961   1.774   0.021   2.533 -0.1740  0.5730  0.6580
  196DOPC   H5R26962   1.663   0.010   2.536 -0.0115 -1.1539  2.8792
  196DOPC   H5S26963   1.801   0.128   2.516  0.2010  0.6138  1.4769
  196DOPC   C2626964   1.835   8.515   2.663 -0.3389  0.2088 -0.2178
  196DOPC   H6R26965   1.945   8.535   2.666  0.1305 -1.8274 -1.8776
  196DOPC   H6S26966   1.817   8.408   2.684  0.8203  0.1600  0.6610
  196DOPC   C2726967   1.773   0.068   2.772 -0.3213 -0.2997 -0.4755
  196DOPC   H7R26968   1.664   0.050   2.764 -0.1386 -1.5552 -0.4128
  196DOPC   H7S26969   1.807   0.172   2.755  2.6888 -1.4729 -2.4990
  196DOPC   C2826970   1.842   0.029   2.906 -0.1051  0.3335 -0.6743
  196DOPC   H8R26971   1.952   0.043   2.899 -0.1845  0.6790 -1.3200
  196DOPC   H8S26972   1.824   8.456   2.920 -0.3129  0.5375  0.7336
  196DOPC   C2926973   1.781   0.113   3.015 -0.2236  0.0490 -0.1017
  196DOPC   H9R26974   1.783   0.219   2.985  1.6955 -0.5350 -2.3510
  196DOPC  C21026975   1.710   0.076   3.128  0.6638  0.2008 -0.4677
  196DOPC  H10R26976   1.669   0.160   3.186  0.2614  0.3879 -1.0104
  196DOPC  C21126977   1.677   8.475   3.183  0.7377 -0.1658 -0.0958
  196DOPC  H11R26978   1.771   8.431   3.224  0.8791  0.1495 -0.0774
  196DOPC  H11S26979   1.646   8.410   3.099 -1.0851 -0.7836  0.9910
  196DOPC  C21226980   1.552   8.473   3.278  0.1062  0.0230 -0.2515
  196DOPC  H12R26981   1.524   8.374   3.321 -1.4208 -0.0185 -1.2562
  196DOPC  H12S26982   1.463   8.504   3.220 -0.2008  1.2111  0.8122
  196DOPC  C21326983   1.559   0.027   3.401  0.3652  0.1315 -0.2846
  196DOPC  H13R26984   1.562   0.132   3.364 -0.8223  0.3922  0.2894
  196DOPC  H13S26985   1.644   0.019   3.473 -0.3518  0.4785  0.6207
  196DOPC  C21426986   1.431   0.017   3.488 -0.2822 -0.0950  0.4870
  196DOPC  H14R26987   1.347   8.527   3.420  1.7893  1.1303 -2.7949
  196DOPC  H14S26988   1.401   0.118   3.522 -2.0555  0.9686 -3.5860
  196DOPC  C21526989   1.445   8.451   3.600 -0.0274  0.7862  0.1901
  196DOPC  H15R26990   1.512   8.489   3.679  1.2556 -0.9229 -0.0163
  196DOPC  H15S26991   1.473   8.351   3.560 -1.0735  0.0131  1.3079
  196DOPC  C21626992   1.309   8.414   3.677 -0.0132  0.5077 -0.3657
  196DOPC  H16R26993   1.242   8.365   3.603 -0.7478 -1.4180  1.4640
  196DOPC  H16S26994   1.262   8.510   3.707  0.4582  0.2060  1.4563
  196DOPC  C21726995   1.346   8.318   3.796  0.4904 -0.0007  0.0393
  196DOPC  H17R26996   1.278   8.348   3.879 -1.3409 -2.5517 -0.4482
  196DOPC  H17S26997   1.454   8.332   3.821  1.7991 -1.7128 -3.8216
  196DOPC  C21826998   1.328   8.168   3.770 -0.6332 -0.5973  0.0161
  196DOPC  H18R26999   1.224   8.129   3.773 -1.6155  1.8479  2.8778
  196DOPC  H18S27000   1.385   8.115   3.849  0.7016 -0.1490 -0.6133
  196DOPC  H18T27001   1.374   8.132   3.676 -0.3527  2.1937 -1.0119
  196DOPC   C3327002   1.256   8.373   2.504  0.5156  0.5808  0.3275
  196DOPC   H3X27003   1.240   8.264   2.522  3.5388 -0.5065 -2.3632
  196DOPC   H3Y27004   1.183   8.422   2.572 -0.5004  0.6090 -0.7553
  196DOPC   C3427005   1.391   8.415   2.556  0.0150 -0.1422  0.3577
  196DOPC   H4X27006   1.400   8.525   2.543 -0.0453 -0.1427  0.3108
  196DOPC   H4Y27007   1.461   8.380   2.477 -1.5346 -3.5644  0.3291
  196DOPC   C3527008   1.430   8.367   2.696 -0.9567 -0.9618 -0.3808
  196DOPC   H5X27009   1.344   8.391   2.762 -1.2096 -1.8859 -0.3508
  196DOPC   H5Y27010   1.518   8.426   2.729 -2.6824  2.3604 -1.2558
  196DOPC   C3627011   1.469   8.220   2.717 -0.2781 -0.3483  0.5071
  196DOPC   H6X27012   1.373   8.167   2.700 -0.4698  0.2838 -0.4689
  196DOPC   H6Y27013   1.552   8.196   2.647 -0.4824 -3.2249  1.1302
  196DOPC   C3727014   1.528   8.190   2.856  1.0241  0.3893 -0.1227
  196DOPC   H7X27015   1.636   8.211   2.838  0.7115  0.5029 -2.0709
  196DOPC   H7Y27016   1.501   8.268   2.931 -1.5143  0.9975 -1.5617
  196DOPC   C3827017   1.491   8.050   2.897 -0.8925  0.9050  0.0374
  196DOPC   H8X27018   1.384   8.031   2.874 -0.3787 -1.5281 -0.5871
  196DOPC   H8Y27019   1.493   8.048   3.008  2.2626 -3.8343  0.1803
  196DOPC   C3927020   1.600   7.959   2.847 -0.2810  0.8018 -0.4352
  196DOPC   H9X27021   1.618   7.969   2.739 -1.3779 -1.3882 -0.8920
  196DOPC  C31027022   1.663   7.869   2.915  0.3511  0.5533  0.3299
  196DOPC  H10X27023   1.738   7.815   2.854 -0.6183  2.3059 -2.6191
  196DOPC  C31127024   1.641   7.826   3.051 -0.1292 -0.4865 -0.0535
  196DOPC  H11X27025   1.532   7.810   3.065  0.0147 -2.0607 -0.5533
  196DOPC  H11Y27026   1.686   7.901   3.120 -1.7473  2.0008 -1.5631
  196DOPC  C31227027   1.707   7.687   3.073  0.7083 -0.3099  0.1929
  196DOPC  H12X27028   1.815   7.694   3.051  0.2021  0.8200 -2.2077
  196DOPC  H12Y27029   1.664   7.610   3.006  1.8699  0.8191 -1.9604
  196DOPC  C31327030   1.686   7.639   3.223  0.4225 -0.0137 -0.3522
  196DOPC  H13X27031   1.727   7.535   3.219  0.7285  0.0972 -0.1621
  196DOPC  H13Y27032   1.742   7.716   3.281  0.4213  0.2144 -0.6545
  196DOPC  C31427033   1.541   7.644   3.276  0.8811 -0.1962  0.1377
  196DOPC  H14X27034   1.502   7.747   3.291 -2.6054 -0.8612 -2.9447
  196DOPC  H14Y27035   1.475   7.587   3.207  0.2487  0.6361  0.0425
  196DOPC  C31527036   1.546   7.591   3.426 -0.4927 -0.6721  0.0700
  196DOPC  H15X27037   1.629   7.647   3.473 -0.0144  0.0022 -1.4905
  196DOPC  H15Y27038   1.585   7.487   3.425 -0.1947 -0.5631  0.2415
  196DOPC  C31627039   1.411   7.593   3.496 -0.0124  0.4413 -0.0942
  196DOPC  H16X27040   1.335   7.544   3.431  1.1378 -1.4063 -0.0939
  196DOPC  H16Y27041   1.417   7.536   3.590 -1.7534 -0.0316 -0.2344
  196DOPC  C31727042   1.365   7.733   3.549 -0.2808 -0.5828 -0.1482
  196DOPC  H17X27043   1.455   7.762   3.608 -0.1819 -1.0893 -0.0422
  196DOPC  H17Y27044   1.363   7.794   3.457 -1.0331  1.2428  1.0305
  196DOPC  C31827045   1.223   7.735   3.600  0.3267 -0.0717  0.2319
  196DOPC  H18X27046   1.215   7.663   3.685 -0.3145 -0.6526 -0.3055
  196DOPC  H18Y27047   1.191   7.829   3.649  1.4158  0.1945  0.4515
  196DOPC  H18Z27048   1.152   7.689   3.528  0.4325 -3.2304  1.9641
  197DOPC     N27049   7.820   0.619   1.076  0.0330  0.2704  0.1172
  197DOPC   C1227050   7.951   0.543   1.050  0.3015 -0.7829 -0.3683
  197DOPC  H12A27051   8.034   0.584   1.106  0.1678 -1.5881  0.4515
  197DOPC  H12B27052   7.980   0.563   0.948  2.8737 -0.6940  0.3072
  197DOPC   C1327053   7.817   0.659   1.220 -0.2149  1.3452  0.3051
  197DOPC  H13A27054   7.726   0.689   1.270 -0.6431 -1.9422  1.7604
  197DOPC  H13B27055   7.856   0.571   1.268 -2.0273 -1.1549 -2.4260
  197DOPC  H13C27056   7.890   0.738   1.230  2.0544 -0.3562 -1.4650
  197DOPC   C1427057   7.708   0.531   1.043  0.3312 -0.4860  0.1926
  197DOPC  H14A27058   7.713   0.495   0.941  0.1332 -0.5115  0.1912
  197DOPC  H14B27059   7.698   0.449   1.112 -1.5078 -0.5926 -0.1657
  197DOPC  H14C27060   7.611   0.577   1.045  0.0427 -1.0705 -0.0187
  197DOPC   C1527061   7.802   0.744   0.985  0.0543  0.1142 -0.1326
  197DOPC  H15A27062   7.704   0.786   1.004 -0.7660 -0.8858 -1.9015
  197DOPC  H15B27063   7.799   0.725   0.878 -1.5702  0.6864 -0.2162
  197DOPC  H15C27064   7.881   0.814   1.004  2.5697 -3.0604  2.3391
  197DOPC   C1127065   7.955   0.389   1.079 -0.1421 -0.0319  0.6625
  197DOPC  H11A27066   7.876   0.344   1.016 -0.0258 -0.2308  0.6570
  197DOPC  H11B27067   8.051   0.352   1.036  0.1549  1.6256 -0.1858
  197DOPC     P27068   8.060   0.373   1.321 -0.0424 -0.2829 -0.0869
  197DOPC   O1327069   8.017   0.485   1.405 -0.4117 -0.3373  0.2219
  197DOPC   O1427070   8.188   0.391   1.249 -0.4664  0.4092 -0.4864
  197DOPC   O1227071   7.944   0.347   1.216  0.6518  0.1648  0.2450
  197DOPC   O1127072   8.054   0.242   1.408  0.2536 -0.2955  0.2413
  197DOPC    C127073   7.952   0.220   1.502  0.2282  0.3919  0.1457
  197DOPC    HA27074   7.857   0.215   1.443  0.6447 -0.0621 -0.5027
  197DOPC    HB27075   7.929   0.308   1.566  0.6953  0.0965  0.7249
  197DOPC    C227076   7.982   0.089   1.580 -0.7422 -0.2430 -0.6907
  197DOPC    HS27077   7.886   0.058   1.627 -0.5963  1.0890  0.5596
  197DOPC   O2127078   8.093   0.107   1.669  0.1128  0.2141  1.1464
  197DOPC   C2127079   8.056   0.124   1.787  0.0984 -1.1988 -0.2167
  197DOPC   O2227080   7.943   0.152   1.827  0.5165 -0.2296  0.3130
  197DOPC   C2227081   8.171   0.122   1.886 -0.5634 -0.3420 -0.1821
  197DOPC   H2R27082   8.236   0.211   1.874 -1.6627  0.6732  0.9939
  197DOPC   H2S27083   8.219   0.029   1.849  0.0573  0.1152 -0.5608
  197DOPC    C327084   8.017   8.515   1.470  0.1264 -0.1513  0.2278
  197DOPC    HX27085   8.100   0.011   1.402 -1.4688  3.1731 -0.4487
  197DOPC    HY27086   7.928   8.521   1.404  1.2450 -2.0697 -1.5756
  197DOPC   O3127087   8.025   8.374   1.519  0.8764  0.1161  0.5201
  197DOPC   C3127088   8.138   8.338   1.574 -0.0806  0.1307 -0.5605
  197DOPC   O3227089   8.237   8.408   1.580 -0.3167 -0.1178  0.7874
  197DOPC   C3227090   8.119   8.194   1.619  0.2791 -0.2258  0.1727
  197DOPC   H2X27091   8.011   8.178   1.638  0.2911  0.1057  0.5463
  197DOPC   H2Y27092   8.150   8.119   1.543  0.0256 -0.0934 -0.0614
  197DOPC   C2327093   8.122   0.110   2.036  0.7938 -0.8791 -0.0670
  197DOPC   H3R27094   8.069   0.013   2.041 -1.5867  0.3210 -0.4886
  197DOPC   H3S27095   8.048   0.191   2.058  2.5867  1.1926 -1.3378
  197DOPC   C2427096   8.227   0.126   2.137  0.6525 -0.2943  0.2468
  197DOPC   H4R27097   8.231   0.230   2.177 -1.2184  0.1446 -0.5940
  197DOPC   H4S27098   8.327   0.092   2.101  1.0011 -1.0147  1.8014
  197DOPC   C2527099   8.197   0.020   2.254 -0.7019 -0.4282 -0.2215
  197DOPC   H5R27100   8.294   0.014   2.309  0.0578  0.0760 -1.4560
  197DOPC   H5S27101   8.170   8.455   2.215 -1.3205 -0.5052  0.3781
  197DOPC   C2627102   8.091   0.068   2.351  0.0418 -0.0454  0.0551
  197DOPC   H6R27103   7.996   0.063   2.293  0.0669 -1.4202  0.1114
  197DOPC   H6S27104   8.113   0.168   2.395  1.0257 -0.6398  0.9432
  197DOPC   C2727105   8.090   8.509   2.473  0.0601  0.2156  0.1867
  197DOPC   H7R27106   8.196   8.502   2.504 -0.0463  0.6604  0.6477
  197DOPC   H7S27107   8.050   8.411   2.437 -0.6609  0.8963 -0.9423
  197DOPC   C2827108   8.005   0.033   2.587 -0.3571 -0.0708  0.0535
  197DOPC   H8R27109   7.945   8.493   2.642 -0.5127  0.9318  1.3092
  197DOPC   H8S27110   7.922   0.093   2.544 -1.5906 -0.2114  2.1398
  197DOPC   C2927111   8.078   0.130   2.674  0.1632 -0.0204  0.2406
  197DOPC   H9R27112   8.183   0.148   2.647 -0.2133 -0.8325 -2.0080
  197DOPC  C21027113   8.033   0.203   2.781  0.2922 -0.9968 -0.2860
  197DOPC  H10R27114   8.096   0.283   2.820 -1.1003 -0.3752  0.7730
  197DOPC  C21127115   7.888   0.199   2.831  0.1152 -0.2684 -0.4110
  197DOPC  H11R27116   7.816   0.149   2.763 -1.2841  0.1685  0.7096
  197DOPC  H11S27117   7.849   0.301   2.849 -0.7087 -0.4272 -1.2638
  197DOPC  C21227118   7.879   0.122   2.969 -0.0019  0.0289 -0.0326
  197DOPC  H12R27119   7.784   0.142   3.023  0.4201 -0.8218  1.0754
  197DOPC  H12S27120   7.960   0.158   3.036  0.5351  1.1624 -1.2406
  197DOPC  C21327121   7.876   8.508   2.945 -0.5977  0.5359 -0.3973
  197DOPC  H13R27122   7.974   8.464   2.916 -0.7109 -0.4868  0.6748
  197DOPC  H13S27123   7.802   8.487   2.865 -0.8990  4.8208 -1.5151
  197DOPC  C21427124   7.829   8.440   3.076  0.5383  0.1784 -0.6559
  197DOPC  H14R27125   7.890   8.472   3.164 -1.1892  1.3152  0.1802
  197DOPC  H14S27126   7.846   8.331   3.064  2.6129  0.2935  0.7259
  197DOPC  C21527127   7.680   8.460   3.125  0.8467  0.2963  0.5568
  197DOPC  H15R27128   7.603   8.392   3.081  0.0039  1.0065  0.9248
  197DOPC  H15S27129   7.640   0.027   3.110 -0.0464 -0.2466 -1.0129
  197DOPC  C21627130   7.659   8.445   3.280  0.4720 -0.1408  1.1613
  197DOPC  H16R27131   7.721   8.524   3.329  0.0027  1.2286 -0.3505
  197DOPC  H16S27132   7.701   8.349   3.316  1.4194  0.1935  1.0014
  197DOPC  C21727133   7.510   8.468   3.319 -0.7045 -0.3057 -0.5964
  197DOPC  H17R27134   7.434   8.404   3.271 -0.5409 -1.1352  0.2207
  197DOPC  H17S27135   7.487   0.037   3.288 -0.3577 -0.6666 -2.1903
  197DOPC  C21827136   7.481   8.456   3.468 -0.3578 -0.3930  0.1188
  197DOPC  H18R27137   7.535   8.534   3.526 -0.7073  0.2347 -0.3860
  197DOPC  H18S27138   7.490   8.352   3.506 -1.7697 -0.9334 -0.9492
  197DOPC  H18T27139   7.373   8.482   3.473 -0.0645  1.2559 -1.0740
  197DOPC   C3327140   8.203   8.170   1.748 -0.0741  0.1934 -0.5752
  197DOPC   H3X27141   8.303   8.217   1.739 -0.1699  0.8674  1.3100
  197DOPC   H3Y27142   8.218   8.063   1.771 -1.8893  0.1781  0.8605
  197DOPC   C3427143   8.134   8.216   1.878 -0.1288 -0.2332 -0.3499
  197DOPC   H4X27144   8.090   8.317   1.869  2.3733  0.8640 -1.0281
  197DOPC   H4Y27145   8.217   8.233   1.950  0.5488 -0.5189 -1.0484
  197DOPC   C3527146   8.045   8.116   1.950  0.2926  0.4755 -0.2755
  197DOPC   H5X27147   8.095   8.016   1.942 -1.2860 -0.5544  1.7798
  197DOPC   H5Y27148   7.954   8.104   1.888 -0.6802 -0.0630  1.1803
  197DOPC   C3627149   8.015   8.145   2.097  0.2559  0.5542  0.5429
  197DOPC   H6X27150   8.015   8.255   2.113 -0.8807  0.6287  0.1127
  197DOPC   H6Y27151   7.914   8.107   2.124  0.1181  1.8848  2.0243
  197DOPC   C3727152   8.107   8.081   2.197  0.7530  0.0197 -0.6764
  197DOPC   H7X27153   8.077   7.973   2.200  0.6303  0.0407  1.9197
  197DOPC   H7Y27154   8.216   8.092   2.184  0.4751  1.9353 -1.7255
  197DOPC   C3827155   8.094   8.122   2.353  0.1081 -0.1431  0.8841
  197DOPC   H8X27156   8.128   8.228   2.341 -1.6039  0.4201  0.6408
  197DOPC   H8Y27157   8.180   8.075   2.405  1.1787  1.8513  1.0344
  197DOPC   C3927158   7.955   8.121   2.411  0.5751  0.1579  0.4206
  197DOPC   H9X27159   7.869   8.154   2.353  0.2985 -1.7066 -0.2976
  197DOPC  C31027160   7.918   8.055   2.525 -0.3825  0.6908  0.2253
  197DOPC  H10X27161   7.811   8.042   2.547  0.1679 -2.1391  1.6997
  197DOPC  C31127162   8.009   7.970   2.614  0.6312  0.5002 -0.4135
  197DOPC  H11X27163   8.013   8.012   2.717  0.5980  1.7051 -0.8805
  197DOPC  H11Y27164   8.112   7.956   2.574  0.2166  1.0301 -1.7432
  197DOPC  C31227165   7.947   7.828   2.615  0.1548  0.6108  0.7597
  197DOPC  H12X27166   7.840   7.842   2.641  0.5526  1.1741  2.1534
  197DOPC  H12Y27167   7.995   7.749   2.677  0.2129 -1.0750 -1.2908
  197DOPC  C31327168   7.944   7.761   2.476  0.5237  0.6521 -0.5077
  197DOPC  H13X27169   7.874   7.813   2.406 -1.9477  0.4161  1.6360
  197DOPC  H13Y27170   8.045   7.753   2.430  1.0722 -0.2952  0.7919
  197DOPC  C31427171   7.896   7.612   2.476  0.2823 -0.0157  0.0949
  197DOPC  H14X27172   7.935   7.576   2.378 -2.6843  0.5662 -1.4214
  197DOPC  H14Y27173   7.939   7.559   2.564 -1.1754  1.7900  1.9793
  197DOPC  C31527174   7.737   7.602   2.476  0.3612 -0.0801 -1.2496
  197DOPC  H15X27175   7.701   7.684   2.411 -0.5837  0.2157 -0.3792
  197DOPC  H15Y27176   7.698   7.614   2.579  1.5406 -0.1580 -0.7688
  197DOPC  C31627177   7.666   7.469   2.428  0.3333 -0.6254 -0.4081
  197DOPC  H16X27178   7.557   7.486   2.432 -0.2758 -3.8312 -0.5959
  197DOPC  H16Y27179   7.680   7.449   2.320  0.3240 -0.2447 -0.4803
  197DOPC  C31727180   7.695   7.361   2.527  0.2569  0.3634  1.1142
  197DOPC  H17X27181   7.801   7.328   2.528 -0.0510 -0.7047  0.2779
  197DOPC  H17Y27182   7.687   7.389   2.634 -0.9206 -0.4624  1.2607
  197DOPC  C31827183   7.608   7.235   2.505  0.6409 -0.4953 -0.0481
  197DOPC  H18X27184   7.598   7.174   2.598 -2.5834  1.0019  0.7211
  197DOPC  H18Y27185   7.505   7.262   2.473  0.6282 -1.6508 -1.0577
  197DOPC  H18Z27186   7.645   7.170   2.423  2.4197 -0.4703  0.6850
  198DOPC     N27187   0.469   6.769   1.269  0.8834  0.0182 -1.1048
  198DOPC   C1227188   0.574   6.764   1.373 -0.6114 -0.1807  0.2576
  198DOPC  H12A27189   0.537   6.734   1.470 -0.0753 -0.1161  0.4885
  198DOPC  H12B27190   0.607   6.863   1.400  2.0410 -1.2328  1.2935
  198DOPC   C1327191   0.364   6.865   1.307 -0.4722 -0.1199 -0.9144
  198DOPC  H13A27192   0.399   6.967   1.308  3.2819 -1.2252  2.0374
  198DOPC  H13B27193   0.289   6.862   1.229  0.4837  0.4643 -1.8823
  198DOPC  H13C27194   0.317   6.845   1.402  2.1183  2.3230  1.0202
  198DOPC   C1427195   0.399   6.640   1.268  0.1666 -0.0973  0.5148
  198DOPC  H14A27196   0.332   6.637   1.183  1.3268 -0.5712 -0.4164
  198DOPC  H14B27197   0.478   6.566   1.263  1.3711  1.0228  1.9244
  198DOPC  H14C27198   0.344   6.619   1.358 -2.3345  0.6492 -0.7524
  198DOPC   C1527199   0.514   6.802   1.139  0.2811  0.1986  0.2421
  198DOPC  H15A27200   0.558   6.900   1.145 -1.0951  0.7817  1.3715
  198DOPC  H15B27201   0.429   6.800   1.072  0.7453  0.0888 -0.3413
  198DOPC  H15C27202   0.586   6.734   1.097 -1.0136 -0.6361 -0.7147
  198DOPC   C1127203   0.702   6.684   1.333  0.0227  0.9019 -0.1388
  198DOPC  H11A27204   0.735   6.720   1.233  1.5679 -0.1924 -0.0645
  198DOPC  H11B27205   0.778   6.718   1.406  0.3102 -1.0584  0.5436
  198DOPC     P27206   0.735   6.446   1.455  0.3296 -0.0234 -0.3728
  198DOPC   O1327207   0.879   6.416   1.454 -0.2222  0.0274  0.2344
  198DOPC   O1427208   0.643   6.329   1.449 -0.0081 -0.1405 -0.1345
  198DOPC   O1227209   0.692   6.540   1.333  0.7271 -1.1372  0.5634
  198DOPC   O1127210   0.691   6.539   1.579 -0.0270  0.6804  0.4794
  198DOPC    C127211   0.603   6.484   1.680 -0.0839 -0.3853 -0.1330
  198DOPC    HA27212   0.645   6.384   1.704 -0.0058 -0.3430 -0.0946
  198DOPC    HB27213   0.498   6.484   1.643 -0.5295  0.9998  1.0285
  198DOPC    C227214   0.577   6.577   1.801 -0.0898 -0.1649 -0.0837
  198DOPC    HS27215   0.550   6.674   1.754  2.0721  0.1053 -0.8733
  198DOPC   O2127216   0.694   6.600   1.870  0.8313 -0.3641 -0.2156
  198DOPC   C2127217   0.689   6.691   1.964 -0.4854  0.2977 -0.1466
  198DOPC   O2227218   0.596   6.766   1.989  0.4136  0.2596  0.2062
  198DOPC   C2227219   0.815   6.686   2.055 -0.5134  0.0814  0.5087
  198DOPC   H2R27220   0.789   6.745   2.145  0.3552  1.5552 -0.1663
  198DOPC   H2S27221   0.898   6.739   2.003 -1.4537  1.1641  0.0518
  198DOPC    C327222   0.459   6.536   1.888 -0.3077 -0.4267 -0.4736
  198DOPC    HX27223   0.378   6.511   1.817 -0.1396 -1.9481 -0.1570
  198DOPC    HY27224   0.427   6.625   1.946 -0.7295 -1.1548  0.4211
  198DOPC   O3127225   0.494   6.433   1.985  0.0098 -0.7764 -0.2489
  198DOPC   C3127226   0.397   6.350   2.010  0.1257  0.0093 -0.0710
  198DOPC   O3227227   0.279   6.363   1.975 -0.4673  1.0672  0.1411
  198DOPC   C3227228   0.457   6.232   2.085 -1.4725  0.5195  0.1782
  198DOPC   H2X27229   0.527   6.191   2.009 -0.3124  3.3734 -0.4116
  198DOPC   H2Y27230   0.500   6.275   2.178 -0.7854  1.0467 -0.3721
  198DOPC   C2327231   0.856   6.539   2.096 -0.1350  0.2253 -0.1916
  198DOPC   H3R27232   0.961   6.543   2.134 -0.3414  1.4308  0.3067
  198DOPC   H3S27233   0.870   6.471   2.009 -0.5142 -2.1308  1.4961
  198DOPC   C2427234   0.776   6.469   2.211 -0.1418  0.5731  0.4247
  198DOPC   H4R27235   0.676   6.447   2.168 -0.6902  1.5229  1.1703
  198DOPC   H4S27236   0.766   6.545   2.292 -0.0205  1.1530 -0.1042
  198DOPC   C2527237   0.842   6.338   2.271 -0.0662 -1.1188  0.0631
  198DOPC   H5R27238   0.950   6.363   2.278 -0.2014  0.2864 -1.8634
  198DOPC   H5S27239   0.823   6.254   2.200  0.4113 -1.0484 -0.1515
  198DOPC   C2627240   0.792   6.286   2.410 -0.6447 -0.2148  0.2632
  198DOPC   H6R27241   0.843   6.187   2.418 -0.8177 -0.1774  2.6804
  198DOPC   H6S27242   0.688   6.251   2.393  0.5337 -3.1981 -1.5549
  198DOPC   C2727243   0.818   6.379   2.533 -0.2910  1.0766 -0.6833
  198DOPC   H7R27244   0.781   6.479   2.502 -0.2625  1.4963  0.6167
  198DOPC   H7S27245   0.927   6.386   2.552 -0.0397  1.6211 -2.1717
  198DOPC   C2827246   0.745   6.327   2.661  0.3918 -0.0431  0.3111
  198DOPC   H8R27247   0.637   6.332   2.636  0.9211  0.9141 -2.0033
  198DOPC   H8S27248   0.747   6.401   2.743  1.4211  0.2408  0.0402
  198DOPC   C2927249   0.776   6.186   2.699 -0.8014  0.2110 -0.2577
  198DOPC   H9R27250   0.745   6.104   2.633  2.4330 -1.5759  0.2640
  198DOPC  C21027251   0.838   6.143   2.818 -0.2528 -0.9497  0.1195
  198DOPC  H10R27252   0.839   6.035   2.839 -2.0177 -0.8540  0.8860
  198DOPC  C21127253   0.884   6.241   2.923 -0.4389 -0.4597 -0.2308
  198DOPC  H11R27254   0.895   6.344   2.882 -0.8591 -0.6546 -0.8333
  198DOPC  H11S27255   0.982   6.208   2.964  0.4286  0.6755 -1.3125
  198DOPC  C21227256   0.776   6.268   3.038 -0.2678 -0.0041 -0.0160
  198DOPC  H12R27257   0.783   6.179   3.105  0.4618  0.7160  0.8977
  198DOPC  H12S27258   0.682   6.283   2.981  0.2238 -0.0497 -0.8500
  198DOPC  C21327259   0.787   6.391   3.125 -0.5935 -0.2358  0.5417
  198DOPC  H13R27260   0.702   6.383   3.197  0.1812  1.0118  1.6373
  198DOPC  H13S27261   0.776   6.477   3.057  1.5755 -0.0639  0.3601
  198DOPC  C21427262   0.920   6.384   3.202  0.4784  0.5430 -0.4678
  198DOPC  H14R27263   0.998   6.423   3.133  0.4093 -2.5788 -2.5299
  198DOPC  H14S27264   0.942   6.276   3.218  0.1241  0.2571 -1.7971
  198DOPC  C21527265   0.909   6.457   3.334 -0.7778 -0.2495  0.6788
  198DOPC  H15R27266   0.805   6.430   3.364 -0.0922 -2.2158  1.4126
  198DOPC  H15S27267   0.919   6.565   3.308 -0.7181  0.0126  1.7214
  198DOPC  C21627268   1.008   6.404   3.430  0.0590 -0.1071  0.7993
  198DOPC  H16R27269   1.106   6.405   3.377 -2.3414  1.5002 -4.2001
  198DOPC  H16S27270   0.981   6.302   3.465 -0.3615 -0.6457 -0.9933
  198DOPC  C21727271   1.001   6.498   3.552  0.3577 -0.2629  0.1862
  198DOPC  H17R27272   0.895   6.509   3.580  0.2223  0.8379 -0.6661
  198DOPC  H17S27273   1.029   6.600   3.517  0.4153  0.6168  2.6365
  198DOPC  C21827274   1.088   6.453   3.675 -0.2120  0.0741 -0.3856
  198DOPC  H18R27275   1.052   6.359   3.722 -0.8442  0.5158  0.0162
  198DOPC  H18S27276   1.092   6.538   3.746  0.9700  0.9050 -1.3963
  198DOPC  H18T27277   1.191   6.424   3.643 -0.2020  0.1702 -0.4391
  198DOPC   C3327278   0.357   6.121   2.127  0.1728 -0.1338 -0.3623
  198DOPC   H3X27279   0.411   6.024   2.130  3.1384  1.3679 -1.4263
  198DOPC   H3Y27280   0.280   6.117   2.047  0.0949  0.5400 -0.3312
  198DOPC   C3427281   0.292   6.150   2.262  0.2813 -0.0932 -0.0929
  198DOPC   H4X27282   0.214   6.072   2.269 -0.4323  0.2702 -3.0086
  198DOPC   H4Y27283   0.245   6.251   2.265 -0.0111 -0.2374  0.2327
  198DOPC   C3527284   0.395   6.132   2.379 -1.3448  0.5335  0.6428
  198DOPC   H5X27285   0.467   6.214   2.359 -1.5280  0.2958 -1.1688
  198DOPC   H5Y27286   0.445   6.033   2.367 -1.3248  0.5374  0.6976
  198DOPC   C3627287   0.336   6.122   2.525  0.0334 -0.2703 -0.3443
  198DOPC   H6X27288   0.261   6.040   2.528  1.2502 -1.5218 -2.0221
  198DOPC   H6Y27289   0.424   6.092   2.586 -0.3460 -3.1114 -1.0134
  198DOPC   C3727290   0.280   6.261   2.575 -0.4079  0.0114  0.2249
  198DOPC   H7X27291   0.372   6.323   2.574  1.6595 -2.8316 -1.0167
  198DOPC   H7Y27292   0.211   6.301   2.498  1.2412 -0.8078 -1.7744
  198DOPC   C3827293   0.215   6.267   2.713 -0.0498  0.1558 -0.4062
  198DOPC   H8X27294   0.131   6.195   2.721  0.6318 -0.6974 -0.8338
  198DOPC   H8Y27295   0.183   6.373   2.724  2.5973  1.0318 -0.5726
  198DOPC   C3927296   0.324   6.233   2.811  0.2929 -0.1972  0.2546
  198DOPC   H9X27297   0.383   6.142   2.790  0.9488  0.7975 -2.6235
  198DOPC  C31027298   0.351   6.311   2.920  0.5458  0.1842 -0.5674
  198DOPC  H10X27299   0.423   6.272   2.994  1.6108  0.7053 -1.3032
  198DOPC  C31127300   0.264   6.426   2.967 -0.1985  0.3519 -0.3532
  198DOPC  H11X27301   0.258   6.413   3.077  1.7209  0.8007 -0.1633
  198DOPC  H11Y27302   0.163   6.423   2.921 -0.5852 -2.2022  0.4915
  198DOPC  C31227303   0.328   6.563   2.926  0.1214  0.1293  0.0146
  198DOPC  H12X27304   0.307   6.587   2.820  1.6412  1.2451 -0.0705
  198DOPC  H12Y27305   0.438   6.565   2.947  0.4457 -0.1766 -1.5378
  198DOPC  C31327306   0.285   6.686   3.006  0.0219  0.2264  0.3716
  198DOPC  H13X27307   0.313   6.775   2.947 -1.0754  0.6708  0.4979
  198DOPC  H13Y27308   0.174   6.683   3.009 -0.0126 -1.8389 -0.7483
  198DOPC  C31427309   0.337   6.686   3.149  0.0204  0.1369 -0.6813
  198DOPC  H14X27310   0.325   6.589   3.203 -0.3995  0.4668 -0.1795
  198DOPC  H14Y27311   0.448   6.693   3.141  0.1996  1.3344  1.8802
  198DOPC  C31527312   0.293   6.805   3.228  0.3451 -0.6609  0.3236
  198DOPC  H15X27313   0.311   6.899   3.172 -0.1498 -0.3474  0.6780
  198DOPC  H15Y27314   0.355   6.817   3.319 -0.7431  0.9584  0.8990
  198DOPC  C31627315   0.141   6.808   3.262  0.4610  0.6767  0.1601
  198DOPC  H16X27316   0.125   6.881   3.344 -1.8279 -0.7619  1.1100
  198DOPC  H16Y27317   0.075   6.843   3.180  0.0285 -1.7938 -0.6350
  198DOPC  C31727318   0.089   6.676   3.309 -0.5519 -0.8548  0.5191
  198DOPC  H17X27319   0.090   6.613   3.217 -0.1800 -0.8741  0.5321
  198DOPC  H17Y27320   0.147   6.627   3.390 -0.1819 -2.1455 -0.4824
  198DOPC  C31827321   8.482   6.698   3.363 -0.1089  0.2466  0.8095
  198DOPC  H18X27322   8.483   6.759   3.456 -0.8381  0.8907  0.4054
  198DOPC  H18Y27323   8.413   6.745   3.290  1.5928 -1.1774 -1.9062
  198DOPC  H18Z27324   8.440   6.600   3.394 -2.0064  1.0608  0.9279
  199DOPC     N27325   3.090   4.863   0.950 -0.0119 -0.5747 -0.2487
  199DOPC   C1227326   3.119   4.984   1.044 -0.3688  0.5154 -0.4631
  199DOPC  H12A27327   3.031   5.048   1.047 -1.8624 -1.4502  0.0784
  199DOPC  H12B27328   3.198   5.045   1.003  0.8428 -0.0460  0.9689
  199DOPC   C1327329   3.050   4.905   0.808  0.1061  0.5837 -0.1333
  199DOPC  H13A27330   3.116   4.976   0.760 -0.0709  1.3378  0.7209
  199DOPC  H13B27331   3.039   4.815   0.749  1.9332  1.4883 -2.0249
  199DOPC  H13C27332   2.962   4.967   0.813  0.5389  1.4380 -2.0252
  199DOPC   C1427333   2.973   4.785   0.999 -0.0215  0.5189  0.6526
  199DOPC  H14A27334   2.890   4.835   1.047 -1.6186 -0.1161 -1.2920
  199DOPC  H14B27335   2.930   4.722   0.922  1.1466 -0.6833  0.9482
  199DOPC  H14C27336   3.006   4.719   1.078 -1.3882 -0.8238  0.1575
  199DOPC   C1527337   3.209   4.770   0.941 -0.6630  0.1325  0.0323
  199DOPC  H15A27338   3.194   4.694   0.867 -1.2542 -0.1546  0.4390
  199DOPC  H15B27339   3.220   4.726   1.039  0.3706  1.5328  0.5782
  199DOPC  H15C27340   3.300   4.825   0.922 -0.8249  0.3719 -0.0612
  199DOPC   C1127341   3.151   4.951   1.189  0.4940  0.0641 -1.3013
  199DOPC  H11A27342   3.166   5.054   1.227 -0.7076  1.5184 -4.4632
  199DOPC  H11B27343   3.065   4.897   1.235  0.0742  1.1312 -0.8216
  199DOPC     P27344   3.413   4.947   1.234 -0.1262  0.1401  0.5647
  199DOPC   O1327345   3.424   5.066   1.156 -0.7831 -0.1009  0.4686
  199DOPC   O1427346   3.517   4.844   1.223 -0.0528  0.2242 -0.5223
  199DOPC   O1227347   3.268   4.875   1.205 -0.2139  0.0903 -0.2917
  199DOPC   O1127348   3.398   4.988   1.388  0.3945 -0.0237 -0.0095
  199DOPC    C127349   3.454   4.916   1.495 -0.7081 -0.1126 -0.9770
  199DOPC    HA27350   3.460   4.981   1.585 -1.7404 -1.1653 -0.0980
  199DOPC    HB27351   3.553   4.869   1.480 -0.7995 -0.1700 -1.4068
  199DOPC    C227352   3.357   4.805   1.546 -0.2380  0.0438 -0.0121
  199DOPC    HS27353   3.319   4.765   1.449  0.5335 -1.6765  0.3601
  199DOPC   O2127354   3.256   4.866   1.620 -0.6106  0.6315  0.0003
  199DOPC   C2127355   3.141   4.809   1.614  0.1937 -0.6074 -0.5058
  199DOPC   O2227356   3.110   4.712   1.542  0.1871  0.4213 -0.8867
  199DOPC   C2227357   3.052   4.871   1.725  0.3748 -0.3868 -0.3891
  199DOPC   H2R27358   3.038   4.980   1.713 -0.3057 -0.6180 -1.8914
  199DOPC   H2S27359   3.101   4.851   1.823  2.2587  0.6543 -1.0885
  199DOPC    C327360   3.425   4.688   1.632 -0.1754 -0.7321 -0.0741
  199DOPC    HX27361   3.513   4.655   1.574 -0.1982 -1.4133  0.2581
  199DOPC    HY27362   3.356   4.601   1.645  0.0557 -0.9779 -0.4913
  199DOPC   O3127363   3.455   4.722   1.764  0.0271 -0.0260  0.2211
  199DOPC   C3127364   3.572   4.756   1.806 -0.4931 -0.0077 -0.0691
  199DOPC   O3227365   3.674   4.778   1.737  0.3877  1.0976 -0.0749
  199DOPC   C3227366   3.573   4.751   1.955 -0.0928 -0.0018 -0.3584
  199DOPC   H2X27367   3.487   4.812   1.989  1.4131  1.5540  0.8299
  199DOPC   H2Y27368   3.565   4.647   1.993 -1.4795  0.4089  0.5639
  199DOPC   C2327369   2.906   4.823   1.720  0.6414  0.2815 -0.3345
  199DOPC   H3R27370   2.897   4.721   1.763 -1.3394  1.2817  1.8410
  199DOPC   H3S27371   2.877   4.815   1.613 -0.0581  0.9388 -0.2001
  199DOPC   C2427372   2.809   4.924   1.779 -0.7314  0.1691  0.3569
  199DOPC   H4R27373   2.704   4.889   1.779 -0.6045 -0.3609 -1.8882
  199DOPC   H4S27374   2.814   5.015   1.716  0.6815 -1.2592 -1.7372
  199DOPC   C2527375   2.842   4.957   1.927 -0.1220  0.7433  0.1180
  199DOPC   H5R27376   2.765   5.034   1.951 -1.0887  0.9342 -3.0512
  199DOPC   H5S27377   2.942   5.003   1.948  0.9700 -1.3983 -0.0875
  199DOPC   C2627378   2.821   4.837   2.018  0.3865 -0.7426  0.1470
  199DOPC   H6R27379   2.887   4.754   1.987 -1.6220 -2.2531 -0.2821
  199DOPC   H6S27380   2.723   4.796   1.985  0.0666 -0.3254  0.5660
  199DOPC   C2727381   2.825   4.863   2.166 -0.0799  0.5699  0.1073
  199DOPC   H7R27382   2.752   4.940   2.202 -0.5456  0.8706 -1.4031
  199DOPC   H7S27383   2.929   4.895   2.190 -0.5830  1.6348  0.9746
  199DOPC   C2827384   2.790   4.738   2.245 -0.1961  0.0298 -0.1801
  199DOPC   H8R27385   2.817   4.752   2.352  2.4113 -1.4977 -0.5507
  199DOPC   H8S27386   2.857   4.660   2.202  1.6710  0.5582  1.5788
  199DOPC   C2927387   2.643   4.704   2.235  0.3737 -0.2751  0.1999
  199DOPC   H9R27388   2.612   4.655   2.141  0.7728  0.2266 -0.1990
  199DOPC  C21027389   2.548   4.721   2.328 -0.0127 -0.6763 -0.7552
  199DOPC  H10R27390   2.443   4.696   2.309  0.7538 -2.3670 -3.1475
  199DOPC  C21127391   2.576   4.798   2.455  0.0927  0.1627 -0.2718
  199DOPC  H11R27392   2.483   4.850   2.486  0.8635  1.5990 -0.2975
  199DOPC  H11S27393   2.646   4.881   2.432  0.4418 -0.5952 -2.1039
  199DOPC  C21227394   2.616   4.718   2.577 -0.2719 -0.2540  0.4763
  199DOPC  H12R27395   2.625   4.787   2.664  2.0153  0.7906 -0.5145
  199DOPC  H12S27396   2.719   4.684   2.556  0.2059  2.2374 -1.7697
  199DOPC  C21327397   2.524   4.605   2.622 -0.2931  0.1792  0.1655
  199DOPC  H13R27398   2.577   4.552   2.704  0.6955 -1.9855 -1.7411
  199DOPC  H13S27399   2.517   4.540   2.532 -0.1771 -0.5149  0.6433
  199DOPC  C21427400   2.391   4.637   2.682  0.0016  0.1702  0.3049
  199DOPC  H14R27401   2.321   4.669   2.602 -0.8069 -0.3320  0.8073
  199DOPC  H14S27402   2.387   4.722   2.753  3.1009  2.1034 -1.5897
  199DOPC  C21527403   2.328   4.510   2.739  0.0336 -0.2902 -0.2661
  199DOPC  H15R27404   2.335   4.421   2.673 -0.9874 -0.4158 -0.2178
  199DOPC  H15S27405   2.220   4.534   2.750 -0.0143 -0.8105  0.5271
  199DOPC  C21627406   2.374   4.479   2.887  0.3980  0.2720  0.1538
  199DOPC  H16R27407   2.368   4.573   2.946  0.4204  1.9261 -2.3324
  199DOPC  H16S27408   2.476   4.435   2.880  0.6320  0.7259  0.5985
  199DOPC  C21727409   2.305   4.357   2.951  0.0738 -0.0199  0.2031
  199DOPC  H17R27410   2.328   4.269   2.888 -0.4063  0.0352 -0.0543
  199DOPC  H17S27411   2.196   4.374   2.938  0.1117 -0.2609 -0.5135
  199DOPC  C21827412   2.353   4.338   3.092 -0.0903  0.3407  0.4858
  199DOPC  H18R27413   2.287   4.255   3.126  1.6210 -2.2666 -2.1066
  199DOPC  H18S27414   2.334   4.428   3.154  0.5178 -0.8902  2.5567
  199DOPC  H18T27415   2.459   4.306   3.100 -0.2653 -1.1714 -2.1813
  199DOPC   C3327416   3.694   4.828   2.017  0.6038 -0.3254 -0.1119
  199DOPC   H3X27417   3.706   4.933   1.981  0.9171 -0.6875 -1.0856
  199DOPC   H3Y27418   3.791   4.778   1.996  1.4450  2.1914 -2.9582
  199DOPC   C3427419   3.676   4.839   2.174 -0.1046  0.6845  0.2577
  199DOPC   H4X27420   3.779   4.868   2.203  1.2472 -0.9202 -2.5627
  199DOPC   H4Y27421   3.656   4.737   2.213 -2.4744  0.8469 -0.3693
  199DOPC   C3527422   3.564   4.933   2.218  0.2690 -0.4240 -0.0527
  199DOPC   H5X27423   3.465   4.886   2.197 -0.3723  0.1636  1.4918
  199DOPC   H5Y27424   3.589   5.027   2.165 -1.7006  0.6910  0.8692
  199DOPC   C3627425   3.572   4.967   2.372  0.1139 -0.1502  0.7912
  199DOPC   H6X27426   3.555   4.872   2.426 -1.2365 -0.2552  0.2131
  199DOPC   H6Y27427   3.668   5.008   2.411 -0.6800  1.3030  1.2980
  199DOPC   C3727428   3.463   5.067   2.405  0.2120  0.1788 -0.1271
  199DOPC   H7X27429   3.479   5.164   2.353 -0.1066  2.2563  3.3072
  199DOPC   H7Y27430   3.363   5.032   2.371 -0.7518  1.1798  1.5227
  199DOPC   C3827431   3.444   5.081   2.556 -0.0984  0.0414 -0.0759
  199DOPC   H8X27432   3.416   4.983   2.599 -1.0057  1.6139  3.2790
  199DOPC   H8Y27433   3.349   5.134   2.579  0.4261  0.6340  0.7545
  199DOPC   C3927434   3.554   5.146   2.631 -0.8616 -0.4739  0.8627
  199DOPC   H9X27435   3.622   5.209   2.572  0.7962 -1.8251  1.2472
  199DOPC  C31027436   3.588   5.119   2.759  0.2121  0.2083 -0.5348
  199DOPC  H10X27437   3.678   5.164   2.803  0.7343 -2.1174  0.9221
  199DOPC  C31127438   3.514   5.032   2.856  0.1831 -0.4259  0.4108
  199DOPC  H11X27439   3.567   4.938   2.880  0.0868 -0.7232 -0.4991
  199DOPC  H11Y27440   3.411   5.015   2.817  0.6577 -0.7079 -0.7615
  199DOPC  C31227441   3.493   5.107   2.986 -0.0039 -0.2498  0.4290
  199DOPC  H12X27442   3.434   5.201   2.974 -2.1260 -1.5942 -0.2064
  199DOPC  H12Y27443   3.594   5.140   3.019 -1.0087  3.5769  0.1786
  199DOPC  C31327444   3.423   5.036   3.099  0.2113 -0.0873 -0.5331
  199DOPC  H13X27445   3.353   4.963   3.052  0.0823 -0.0754 -0.3588
  199DOPC  H13Y27446   3.499   4.964   3.138 -0.6588 -1.2104 -0.8499
  199DOPC  C31427447   3.370   5.108   3.218  0.6619 -0.0934 -0.6139
  199DOPC  H14X27448   3.323   5.043   3.295 -0.2320  0.3319 -0.7923
  199DOPC  H14Y27449   3.440   5.175   3.273 -0.8916 -0.8293  2.4967
  199DOPC  C31527450   3.254   5.201   3.179 -0.1126 -0.0187  0.0300
  199DOPC  H15X27451   3.223   5.173   3.076  1.1716  1.4822 -0.8110
  199DOPC  H15Y27452   3.293   5.305   3.176  0.4112 -0.1937  0.6328
  199DOPC  C31627453   3.140   5.185   3.283 -0.5517  0.3680  0.2552
  199DOPC  H16X27454   3.101   5.082   3.285  0.5150 -0.0541  1.7114
  199DOPC  H16Y27455   3.182   5.201   3.385  1.1105 -0.5007 -0.2539
  199DOPC  C31727456   3.032   5.285   3.251 -0.5819 -0.0888  0.0669
  199DOPC  H17X27457   2.963   5.265   3.335  2.5219 -0.2443  2.7854
  199DOPC  H17Y27458   3.064   5.391   3.257 -0.3725 -0.0501 -1.2839
  199DOPC  C31827459   2.974   5.261   3.119  0.2472  0.2332  0.4967
  199DOPC  H18X27460   2.949   5.154   3.102  0.0576  0.5165 -1.1702
  199DOPC  H18Y27461   2.877   5.313   3.103  0.0931 -0.3037 -0.3815
  199DOPC  H18Z27462   3.040   5.293   3.035 -0.5871 -0.8429 -0.5911
  200DOPC     N27463   1.724   1.277   1.416  0.4364 -0.2836 -0.3264
  200DOPC   C1227464   1.669   1.143   1.358 -0.2167 -1.1614 -0.5982
  200DOPC  H12A27465   1.570   1.135   1.400  0.3886  0.6024  1.3438
  200DOPC  H12B27466   1.730   1.060   1.391 -1.7719 -1.4450  1.7956
  200DOPC   C1327467   1.614   1.382   1.407  0.1151  0.7193  0.9102
  200DOPC  H13A27468   1.529   1.356   1.469 -0.2188  0.7842  0.4887
  200DOPC  H13B27469   1.647   1.481   1.435  2.2955  1.0237 -2.2222
  200DOPC  H13C27470   1.588   1.390   1.303 -2.1957 -0.5882  1.3191
  200DOPC   C1427471   1.848   1.330   1.341  0.4696 -0.4983  0.7507
  200DOPC  H14A27472   1.838   1.330   1.233  0.3099  2.6097  0.6553
  200DOPC  H14B27473   1.872   1.433   1.362  2.2363 -0.8346  0.4780
  200DOPC  H14C27474   1.933   1.269   1.363  0.4506 -0.2230  1.6488
  200DOPC   C1527475   1.757   1.272   1.560  0.6803  0.1363  0.4940
  200DOPC  H15A27476   1.848   1.214   1.566 -0.1219 -1.1560  0.3750
  200DOPC  H15B27477   1.678   1.238   1.625  0.7480  0.5442  0.7974
  200DOPC  H15C27478   1.778   1.373   1.593  0.3678 -0.1772  1.6919
  200DOPC   C1127479   1.645   1.133   1.207 -0.3833  0.9999  0.0530
  200DOPC  H11A27480   1.587   1.040   1.191  1.6063 -0.1857 -0.6170
  200DOPC  H11B27481   1.590   1.221   1.168 -1.4929 -0.4502 -1.7974
  200DOPC     P27482   1.832   0.981   1.100 -0.2805 -0.0125  0.1806
  200DOPC   O1327483   1.977   0.991   1.067 -0.4173 -0.4746  0.0141
  200DOPC   O1427484   1.749   0.918   1.000  0.1358  0.8408 -0.2121
  200DOPC   O1227485   1.775   1.126   1.142  0.4643  0.0111 -0.5685
  200DOPC   O1127486   1.819   0.906   1.238  0.0022  0.3264  0.5587
  200DOPC    C127487   1.894   0.803   1.296 -0.6377 -0.3567  0.0212
  200DOPC    HA27488   1.955   0.748   1.221 -0.3851  0.0278 -0.0587
  200DOPC    HB27489   1.824   0.730   1.341 -0.1976 -0.7309  0.1018
  200DOPC    C227490   1.977   0.848   1.416 -0.0750 -0.6572 -0.6697
  200DOPC    HS27491   2.029   0.762   1.463  1.0456 -0.3889 -1.3881
  200DOPC   O2127492   1.885   0.913   1.507  1.1599  0.4961  0.5457
  200DOPC   C2127493   1.798   0.847   1.573 -0.3644 -0.2860 -0.1070
  200DOPC   O2227494   1.772   0.727   1.572 -0.8077  0.3708 -0.4507
  200DOPC   C2227495   1.710   0.949   1.654 -0.1820 -0.3868  0.7631
  200DOPC   H2R27496   1.641   0.992   1.579  2.7059  0.6183 -1.4919
  200DOPC   H2S27497   1.779   1.023   1.701  0.0477 -0.2357  0.1910
  200DOPC    C327498   2.087   0.953   1.373 -1.0408 -0.4764  1.0978
  200DOPC    HX27499   2.023   1.039   1.346 -2.2315 -1.8048 -0.4518
  200DOPC    HY27500   2.141   0.925   1.280 -2.1357  1.7469 -0.2794
  200DOPC   O3127501   2.168   0.983   1.485 -0.9799 -0.4078  0.4713
  200DOPC   C3127502   2.127   1.078   1.561  0.6235  0.0666 -0.3196
  200DOPC   O3227503   2.034   1.155   1.539 -0.4849  0.2369 -0.1418
  200DOPC   C3227504   2.191   1.074   1.696 -0.0001 -0.2381 -0.1992
  200DOPC   H2X27505   2.249   0.982   1.715 -0.1965 -0.0860  1.2369
  200DOPC   H2Y27506   2.259   1.162   1.688 -0.4984  0.3551  1.6408
  200DOPC   C2327507   1.630   0.889   1.764 -0.5425  0.8136 -0.2088
  200DOPC   H3R27508   1.586   0.790   1.739  0.4904  0.7176 -1.8182
  200DOPC   H3S27509   1.555   0.967   1.788  0.5618  1.3241  1.8098
  200DOPC   C2427510   1.712   0.875   1.893 -0.9021  0.2001  0.2004
  200DOPC   H4R27511   1.746   0.977   1.920 -1.1948  0.4248 -0.2704
  200DOPC   H4S27512   1.796   0.803   1.885 -1.6311 -0.8569  1.6624
  200DOPC   C2527513   1.624   0.821   2.011  0.1995 -0.3546  0.4601
  200DOPC   H5R27514   1.607   0.717   1.976  0.6568 -0.2875  0.0410
  200DOPC   H5S27515   1.534   0.886   2.016  1.4531  1.5019 -0.0423
  200DOPC   C2627516   1.693   0.801   2.151 -0.0421  0.5501  0.3404
  200DOPC   H6R27517   1.747   0.896   2.172  0.5330 -0.0209  1.6152
  200DOPC   H6S27518   1.768   0.719   2.157 -0.8201 -0.4314 -2.2098
  200DOPC   C2727519   1.596   0.775   2.268 -0.1620 -0.0485  0.7930
  200DOPC   H7R27520   1.544   0.677   2.263 -0.4801  0.1231  0.6997
  200DOPC   H7S27521   1.501   0.832   2.261 -1.4392 -2.1397 -0.2147
  200DOPC   C2827522   1.659   0.781   2.413  0.0937  0.1715  0.4123
  200DOPC   H8R27523   1.744   0.709   2.408  0.3231  0.3395  1.6830
  200DOPC   H8S27524   1.577   0.736   2.472 -0.4747  0.1308 -0.3872
  200DOPC   C2927525   1.688   0.917   2.468 -0.5986 -0.4660  0.0495
  200DOPC   H9R27526   1.598   0.968   2.505 -0.7145 -1.4461  1.1823
  200DOPC  C21027527   1.809   0.965   2.492  0.1609  0.4648  0.5122
  200DOPC  H10R27528   1.809   1.060   2.547 -0.7413 -0.2477  1.7834
  200DOPC  C21127529   1.944   0.905   2.463 -0.5414 -0.3615  0.6657
  200DOPC  H11R27530   1.979   0.912   2.358  0.3881  2.0556  1.0827
  200DOPC  H11S27531   1.939   0.797   2.488  1.4078 -0.9686 -1.2665
  200DOPC  C21227532   2.068   0.964   2.537 -0.0802  0.3208 -0.3103
  200DOPC  H12R27533   2.070   1.075   2.533  0.9030  0.3038 -0.5964
  200DOPC  H12S27534   2.156   0.929   2.478  1.4201  0.3824  1.7673
  200DOPC  C21327535   2.084   0.910   2.677 -0.5186  0.6083  0.0678
  200DOPC  H13R27536   2.095   0.801   2.659 -1.2007  0.5364  0.0561
  200DOPC  H13S27537   1.993   0.935   2.735 -0.0045  1.9412  0.3344
  200DOPC  C21427538   2.205   0.974   2.745 -0.1029 -1.0016 -0.2415
  200DOPC  H14R27539   2.195   1.084   2.753 -1.9833 -1.1911  0.4053
  200DOPC  H14S27540   2.299   0.962   2.687  1.5057  2.9008  1.2453
  200DOPC  C21527541   2.230   0.917   2.883 -0.0249  0.2548 -0.2101
  200DOPC  H15R27542   2.247   0.808   2.869 -1.4816  0.0628 -0.7357
  200DOPC  H15S27543   2.130   0.910   2.931  1.5243  0.5109  3.3281
  200DOPC  C21627544   2.331   0.999   2.967 -0.3801  0.1562  0.0166
  200DOPC  H16R27545   2.291   1.103   2.976  1.0033  0.7216 -0.2057
  200DOPC  H16S27546   2.429   0.995   2.915  0.5136  3.3547  1.2424
  200DOPC  C21727547   2.358   0.955   3.106 -0.2182 -0.1559  0.4667
  200DOPC  H17R27548   2.368   0.845   3.096 -0.6633 -0.3721  2.0835
  200DOPC  H17S27549   2.271   0.968   3.173  0.1960 -0.4697  1.0722
  200DOPC  C21827550   2.488   1.012   3.160  0.3198 -0.4056 -0.2221
  200DOPC  H18R27551   2.570   0.944   3.129  1.0322  0.1464  0.4364
  200DOPC  H18S27552   2.474   1.018   3.270 -2.6283 -1.3072 -0.4583
  200DOPC  H18T27553   2.498   1.119   3.131  1.4073 -0.4564 -0.0647
  200DOPC   C3327554   2.089   1.084   1.818  0.0274 -0.0833 -0.2115
  200DOPC   H3X27555   1.998   1.021   1.807 -0.0160 -0.3110  1.3101
  200DOPC   H3Y27556   2.056   1.190   1.816 -1.7094 -0.5228  1.8668
  200DOPC   C3427557   2.149   1.040   1.952  0.5303  0.0209 -0.2139
  200DOPC   H4X27558   2.227   1.113   1.980 -0.0530  0.0227  1.5686
  200DOPC   H4Y27559   2.193   0.938   1.943 -1.4098 -0.8135 -0.9771
  200DOPC   C3527560   2.047   1.039   2.069 -0.0062 -0.3604  0.3082
  200DOPC   H5X27561   2.091   1.010   2.166  0.7337 -0.7979 -0.1465
  200DOPC   H5Y27562   1.968   0.965   2.047 -0.1782 -0.3496  0.8883
  200DOPC   C3627563   1.992   1.177   2.101 -0.1096 -0.4685 -0.6083
  200DOPC   H6X27564   2.075   1.246   2.127  0.9124 -1.7789 -0.2448
  200DOPC   H6Y27565   1.931   1.222   2.020 -0.3341  2.5896  1.1227
  200DOPC   C3727566   1.899   1.159   2.221  0.5359  0.2050 -0.2021
  200DOPC   H7X27567   1.841   1.064   2.221  0.9633 -0.0611 -0.8046
  200DOPC   H7Y27568   1.981   1.140   2.293  1.0453 -0.0098 -0.8381
  200DOPC   C3827569   1.818   1.282   2.249  0.8410  0.0386 -1.2422
  200DOPC   H8X27570   1.744   1.264   2.330  0.2475  0.9572 -1.5667
  200DOPC   H8Y27571   1.775   1.312   2.151 -1.7402 -0.6782 -0.4011
  200DOPC   C3927572   1.921   1.387   2.292  0.0701 -0.0491 -0.7916
  200DOPC   H9X27573   1.994   1.417   2.215  1.1637 -0.2864  0.1314
  200DOPC  C31027574   1.929   1.437   2.418 -0.2809  0.0729  0.1234
  200DOPC  H10X27575   2.002   1.515   2.444  0.8508 -1.0071  0.2741
  200DOPC  C31127576   1.851   1.414   2.541 -0.4004  0.3300  0.3086
  200DOPC  H11X27577   1.756   1.356   2.544  0.3015 -0.8025  1.6442
  200DOPC  H11Y27578   1.809   1.516   2.556 -0.0648  0.2113  2.2728
  200DOPC  C31227579   1.955   1.389   2.646  0.1862  0.0116 -0.4096
  200DOPC  H12X27580   2.044   1.451   2.671  1.3362 -2.5865  2.7030
  200DOPC  H12Y27581   2.003   1.289   2.638 -1.0857 -0.7906  1.3030
  200DOPC  C31327582   1.881   1.360   2.786  0.3138  0.1726  0.0323
  200DOPC  H13X27583   1.810   1.443   2.804 -0.2720 -0.3435  0.1226
  200DOPC  H13Y27584   1.816   1.274   2.757 -0.2585  1.2737 -2.1933
  200DOPC  C31427585   1.971   1.321   2.905  0.4970 -0.8211 -0.2489
  200DOPC  H14X27586   2.007   1.217   2.889  3.4254  0.3178 -1.7898
  200DOPC  H14Y27587   2.062   1.385   2.910  0.9015 -1.3424 -0.7767
  200DOPC  C31527588   1.892   1.328   3.044  0.8078  0.1872 -0.1208
  200DOPC  H15X27589   1.812   1.251   3.050 -0.6239  1.6254 -0.0391
  200DOPC  H15Y27590   1.850   1.428   3.066  0.1964  0.0325 -0.5395
  200DOPC  C31627591   1.986   1.291   3.158 -0.2459 -1.0561  0.3227
  200DOPC  H16X27592   2.046   1.202   3.129  1.5451  0.4216 -0.7325
  200DOPC  H16Y27593   2.061   1.373   3.166 -0.5091 -0.9574  2.2116
  200DOPC  C31727594   1.924   1.288   3.297 -0.5546  0.0974 -0.1171
  200DOPC  H17X27595   1.869   1.383   3.316  0.2429  0.4728  0.3213
  200DOPC  H17Y27596   1.853   1.202   3.292  0.8423 -1.0822 -0.3624
  200DOPC  C31827597   2.033   1.256   3.403  0.0512  0.1862 -0.0286
  200DOPC  H18X27598   2.081   1.157   3.384  0.6637  0.6368 -0.8804
  200DOPC  H18Y27599   2.108   1.338   3.398  0.9024 -0.3822  2.3330
  200DOPC  H18Z27600   1.990   1.253   3.505  0.3931  1.3609  0.1599
  201SOD    SOD27601   5.899   3.910   5.653  0.1117 -0.0060 -0.0731
  202SOD    SOD27602   4.495   3.735   6.438  0.2463 -0.4555  0.3553
  203SOD    SOD27603   7.731   7.072   1.948 -0.1001  0.1221 -0.3621
  204SOD    SOD27604   4.253   2.082   7.022 -0.4575 -0.0375  0.0570
  205SOD    SOD27605   6.427   0.186   5.249 -0.2972  0.2238  0.4248
  206SOD    SOD27606   0.472   0.535   6.264  0.4485  0.0505  0.0517
  207SOD    SOD27607   1.976   1.889   0.366  0.2958  0.0092  0.1008
  208SOD    SOD27608   7.407   5.579   2.237 -0.7369 -0.0743  0.3256
  209SOD    SOD27609   3.131   7.284   6.521 -0.0659  0.3953 -0.2869
  210SOD    SOD27610   7.288   1.081   5.200 -0.2038 -0.0369  0.5947
  211SOD    SOD27611   1.671   0.547   1.621  0.0103 -0.7050 -0.3550
  212SOD    SOD27612   1.607   8.291   5.239 -0.1736 -0.1120 -0.3011
  213SOD    SOD27613   1.294   1.773   0.787 -0.1280 -0.4872  0.3440
  214SOD    SOD27614   1.232   7.564   6.323 -0.6271 -0.2465  0.0796
  215SOD    SOD27615   1.764   4.040   6.331  0.2210  0.0643 -0.0159
  216SOD    SOD27616   7.253   5.398   6.211 -0.0196 -0.0549  0.2843
  217SOD    SOD27617   1.008   3.539   0.225  0.1234 -0.0937  0.1852
  218SOD    SOD27618   5.462   6.126   1.418 -0.1932  0.1261 -0.0881
  219SOD    SOD27619   4.053   2.596   0.450 -0.1297 -0.2532  0.3584
  220CLA    CLA27620   6.375   3.693   6.702 -0.0264 -0.0180 -0.0508
  221CLA    CLA27621   0.963   5.211   6.142  0.3669  0.0806  0.4240
  222CLA    CLA27622   0.475   4.634   6.899 -0.5574  0.1215  0.0316
  223CLA    CLA27623   5.497   1.981   0.788 -0.0031  0.1400  0.2328
  224CLA    CLA27624   3.018   2.077   0.749 -0.0545  0.0537  0.0612
  225CLA    CLA27625   7.291   3.907   1.140  0.1268  0.4621 -0.2590
  226CLA    CLA27626   6.345   5.706   0.813  0.0102 -0.0440 -0.2446
  227CLA    CLA27627   4.269   3.995   6.549 -0.5009  0.0179 -0.1516
  228CLA    CLA27628   1.980   7.779   6.651 -0.0345 -0.2309  0.1902
  229CLA    CLA27629   0.577   2.329   0.419  0.3872 -0.0564 -0.4627
  230CLA    CLA27630   5.557   0.409   5.629  0.1628  0.0407 -0.0906
  231CLA    CLA27631   4.730   2.395   0.848  0.0437 -0.1127 -0.1517
  232CLA    CLA27632   2.911   0.620   6.628  0.0907  0.4094  0.0111
  233CLA    CLA27633   1.050   8.276   0.052 -0.1606  0.3905  0.0557
  234CLA    CLA27634   0.670   6.836   6.440  0.0443 -0.1826 -0.3825
  235CLA    CLA27635   2.231   4.967   0.894 -0.0762 -0.2483 -0.1933
  236CLA    CLA27636   4.738   0.441   7.030  0.0306  0.2264 -0.1231
  237CLA    CLA27637   8.068   1.413   6.880 -0.0902  0.0353 -0.2373
  238CLA    CLA27638   1.186   2.792   5.933  0.2446  0.0387 -0.0923
  239TIP3   OH227639   1.563   4.682   0.675  0.3177 -0.0245 -0.2323
  239TIP3    H127640   1.513   4.760   0.654 -0.2709 -0.6969 -1.3941
  239TIP3    H227641   1.638   4.685   0.615 -0.1475 -0.7705 -0.8595
  240TIP3   OH227642   1.723   4.342   6.949  0.2234 -0.1428  0.2129
  240TIP3    H127643   1.649   4.283   6.963 -0.0722  0.7283  3.0023
  240TIP3    H227644   1.785   4.319   7.018  2.0514 -0.0103 -1.3041
  241TIP3   OH227645   4.563   5.148   0.537 -0.5152  0.7129  0.5240
  241TIP3    H127646   4.597   5.073   0.489 -0.8080 -0.0121  1.4292
  241TIP3    H227647   4.494   5.183   0.480 -1.2490 -0.4792  0.6291
  242TIP3   OH227648   6.893   6.170   0.162  0.1680 -0.1294 -0.0291
  242TIP3    H127649   6.819   6.163   0.102  0.6911 -2.1874 -0.5426
  242TIP3    H227650   6.854   6.188   0.247 -0.9087 -0.8475 -0.3468
  243TIP3   OH227651   0.917   6.162   1.101  0.4124  0.1829  0.0503
  243TIP3    H127652   0.850   6.105   1.139  0.7516 -0.4592 -0.2882
  243TIP3    H227653   0.965   6.195   1.176  1.6653 -1.8058  0.2157
  244TIP3   OH227654   7.188   6.581   5.312  0.1903 -0.6908  0.4109
  244TIP3    H127655   7.259   6.517   5.308  2.6876  1.8425  0.8837
  244TIP3    H227656   7.191   6.615   5.401  0.6864  1.8034 -0.4753
  245TIP3   OH227657   5.889   8.291   1.768  0.3254 -0.1440  0.0458
  245TIP3    H127658   5.904   8.349   1.693  2.0132 -0.1171  0.3625
  245TIP3    H227659   5.794   8.287   1.776  0.1255  0.7620 -1.3885
  246TIP3   OH227660   7.204   3.392   0.285 -0.4979  0.1942 -0.2777
  246TIP3    H127661   7.152   3.470   0.269  1.3367  1.1599 -2.1131
  246TIP3    H227662   7.149   3.319   0.258 -1.5225  1.0218 -0.4491
  247TIP3   OH227663   1.199   0.982   5.819  0.3203 -0.1635 -0.1670
  247TIP3    H127664   1.279   1.034   5.830 -0.5366  1.0892  0.4359
  247TIP3    H227665   1.200   0.956   5.727  0.7159  1.0745 -0.5390
  248TIP3   OH227666   7.142   4.603   1.433  0.0446  0.1722 -0.3844
  248TIP3    H127667   7.077   4.618   1.364  0.4407 -0.3707 -0.8797
  248TIP3    H227668   7.221   4.649   1.401 -0.0731  0.7930  0.1934
  249TIP3   OH227669   3.840   2.391   0.873  0.2002 -0.1283 -0.0900
  249TIP3    H127670   3.753   2.353   0.863 -0.3333  0.5804  1.5025
  249TIP3    H227671   3.860   2.381   0.966  1.4156  0.5710 -0.2551
  250TIP3   OH227672   4.213   2.807   6.320 -0.3978  0.3246 -0.0072
  250TIP3    H127673   4.192   2.896   6.348  0.8333  0.1859  1.5238
  250TIP3    H227674   4.286   2.818   6.260 -0.3193  0.3585  0.0937
  251TIP3   OH227675   4.921   6.160   0.624  0.1011 -0.2940  0.0628
  251TIP3    H127676   4.966   6.198   0.699 -0.3055 -1.9417  1.2103
  251TIP3    H227677   4.876   6.083   0.660 -3.0549  0.8172 -1.1220
  252TIP3   OH227678   5.886   5.906   0.138  0.3294 -0.1830 -1.0499
  252TIP3    H127679   5.805   5.943   0.101  0.0639  0.1806 -0.1341
  252TIP3    H227680   5.923   5.978   0.189 -0.1989 -1.1426  0.7918
  253TIP3   OH227681   6.477   6.747   0.023 -0.1397  0.6551  0.1543
  253TIP3    H127682   6.397   6.773   0.069  0.0199  3.0401 -0.8260
  253TIP3    H227683   6.458   6.763   7.002  1.4930  1.3982 -0.0790
  254TIP3   OH227684   0.866   1.357   6.401 -0.2457 -0.3540  0.5074
  254TIP3    H127685   0.855   1.425   6.335 -0.2966 -0.2897  0.5819
  254TIP3    H227686   0.959   1.334   6.396 -0.3680 -0.7735  0.0064
  255TIP3   OH227687   5.082   0.900   0.317  0.1830 -0.5385  0.0871
  255TIP3    H127688   5.039   0.837   0.374 -0.3938  1.4929  2.0314
  255TIP3    H227689   5.011   0.931   0.259  0.2892 -1.0510 -0.3288
  256TIP3   OH227690   7.131   7.099   5.696  0.1133 -0.6328  0.8888
  256TIP3    H127691   7.099   7.189   5.689  1.6043 -0.0202  1.5934
  256TIP3    H227692   7.151   7.074   5.606 -1.9541 -0.9262  0.4582
  257TIP3   OH227693   8.058   0.690   6.271 -0.0182  0.1023  0.5809
  257TIP3    H127694   8.059   0.715   6.364  1.0843  0.3814  0.5025
  257TIP3    H227695   7.967   0.668   6.254 -0.0668 -0.9630  2.0016
  258TIP3   OH227696   5.869   7.732   6.897  0.0142 -0.5350  0.3579
  258TIP3    H127697   5.873   7.637   6.892 -0.3875 -0.5042 -0.9853
  258TIP3    H227698   5.953   7.759   6.933  1.2902 -1.2629 -1.9057
  259TIP3   OH227699   7.023   1.770   1.038  0.2817 -0.4387  0.4697
  259TIP3    H127700   6.953   1.793   1.100 -0.4217  0.8370 -0.7503
  259TIP3    H227701   7.080   1.847   1.036 -0.2638 -0.0400 -1.1932
  260TIP3   OH227702   7.599   2.562   6.864 -0.2613 -0.2800  0.4336
  260TIP3    H127703   7.598   2.658   6.873 -1.8858 -0.3666  1.4109
  260TIP3    H227704   7.510   2.535   6.885  0.4157 -2.1053  1.1077
  261TIP3   OH227705   6.561   3.646   5.393 -0.1538 -0.0592 -0.2897
  261TIP3    H127706   6.579   3.613   5.306 -0.0051 -0.7768  0.0032
  261TIP3    H227707   6.541   3.739   5.381  0.9400  0.1012 -0.9482
  262TIP3   OH227708   6.489   2.939   0.923 -0.1823 -0.0839 -0.0224
  262TIP3    H127709   6.542   2.975   0.852 -1.0788  2.5864  0.5726
  262TIP3    H227710   6.399   2.959   0.899 -0.5516  0.2105  1.4977
  263TIP3   OH227711   5.227   3.540   0.673  0.0236  0.6464 -0.2821
  263TIP3    H127712   5.237   3.500   0.586  2.1248  0.7671 -0.1479
  263TIP3    H227713   5.316   3.542   0.709 -0.5947  1.8778  1.3048
  264TIP3   OH227714   0.905   4.548   0.292 -0.0850  0.0881 -0.8993
  264TIP3    H127715   0.905   4.453   0.304 -1.5450  0.3007  1.3376
  264TIP3    H227716   0.949   4.561   0.208  2.7901 -2.3618  0.0516
  265TIP3   OH227717   4.466   4.100   0.129  0.1127 -0.1316  0.3550
  265TIP3    H127718   4.377   4.112   0.163 -0.6982 -1.2528 -1.2161
  265TIP3    H227719   4.501   4.026   0.179 -0.7520 -1.2149 -0.5702
  266TIP3   OH227720   7.318   0.440   6.613 -0.0435  0.6506 -0.8157
  266TIP3    H127721   7.349   0.478   6.695 -0.1620 -0.3335 -0.2993
  266TIP3    H227722   7.317   0.513   6.551  0.5755  1.2877 -0.0894
  267TIP3   OH227723   4.416   2.031   0.884  0.7350 -0.3382 -0.3260
  267TIP3    H127724   4.368   1.952   0.911 -0.6517  0.0748 -1.4531
  267TIP3    H227725   4.461   2.060   0.963  0.9404 -2.0217  0.2137
  268TIP3   OH227726   3.055   3.702   0.884  0.5466 -0.6313  0.1961
  268TIP3    H127727   2.994   3.642   0.926 -0.4276  0.8015  0.9082
  268TIP3    H227728   3.019   3.789   0.901  1.8154  0.1641 -0.9440
  269TIP3   OH227729   2.241   1.963   5.539  0.1446  0.2849 -0.5605
  269TIP3    H127730   2.164   2.018   5.523 -0.8874 -0.9240  0.1079
  269TIP3    H227731   2.238   1.943   5.632  1.6344  0.7176 -0.3941
  270TIP3   OH227732   0.143   1.066   0.268  0.1212 -0.6178 -0.1597
  270TIP3    H127733   0.148   1.092   0.177 -3.1741  0.4512 -0.1705
  270TIP3    H227734   0.121   1.146   0.315 -1.1600 -1.6678  1.1382
  271TIP3   OH227735   7.484   6.592   7.022 -0.2199  0.1561 -0.0732
  271TIP3    H127736   7.488   6.554   0.039 -1.6000  0.0758 -0.0263
  271TIP3    H227737   7.476   6.517   6.964 -1.5009  0.2970 -0.0920
  272TIP3   OH227738   6.741   8.220   1.365 -0.1619  0.3704  0.2908
  272TIP3    H127739   6.765   8.251   1.452 -1.1170  0.6604  0.4612
  272TIP3    H227740   6.751   8.125   1.370  2.4071  0.5514 -0.1241
  273TIP3   OH227741   2.253   8.128   0.922  0.7815 -0.0635  0.2635
  273TIP3    H127742   2.190   8.072   0.876 -1.0289  3.2571 -1.7026
  273TIP3    H227743   2.244   8.103   1.014 -3.4227  0.0309  0.1096
  274TIP3   OH227744   0.577   8.104   5.890 -0.2226 -0.1384 -0.5262
  274TIP3    H127745   0.653   8.151   5.925  0.7125 -2.4523  0.8163
  274TIP3    H227746   0.589   8.105   5.796  1.4444 -0.3359 -0.3492
  275TIP3   OH227747   2.956   0.489   5.171 -0.4605 -0.5314  0.5482
  275TIP3    H127748   2.957   0.423   5.240  0.8763  0.1320  1.2173
  275TIP3    H227749   3.031   0.545   5.192  0.9459 -1.1643 -2.2551
  276TIP3   OH227750   8.204   8.081   6.905 -0.1441  0.0289 -0.1030
  276TIP3    H127751   8.128   8.139   6.910 -0.4822 -0.5107  2.4007
  276TIP3    H227752   8.167   7.993   6.898  0.3566 -0.0540 -2.5792
  277TIP3   OH227753   3.666   3.512   0.285  0.2813  0.5968 -0.0104
  277TIP3    H127754   3.677   3.445   0.218  1.8944 -2.3822  2.9616
  277TIP3    H227755   3.753   3.552   0.293  0.0543  1.0514  0.2408
  278TIP3   OH227756   7.377   6.380   6.277  0.0284 -0.0771 -0.2340
  278TIP3    H127757   7.286   6.384   6.249 -0.3604 -0.4726  0.9228
  278TIP3    H227758   7.426   6.359   6.197 -0.9054 -0.0308 -0.8309
  279TIP3   OH227759   3.773   3.586   6.712 -0.1023 -0.6462 -0.3481
  279TIP3    H127760   3.729   3.671   6.718  0.2784 -0.3250 -1.8274
  279TIP3    H227761   3.703   3.522   6.726 -0.3428 -0.1145  1.0891
  280TIP3   OH227762   3.294   7.428   1.271  0.1491 -0.2080 -0.0594
  280TIP3    H127763   3.279   7.455   1.181  0.4760  0.5412  0.1086
  280TIP3    H227764   3.206   7.418   1.308  0.0197 -0.1692 -0.3532
  281TIP3   OH227765   0.344   5.969   0.178  0.4029  0.5049 -0.1740
  281TIP3    H127766   0.326   5.940   0.088 -0.8504  0.1875  0.1717
  281TIP3    H227767   0.312   6.059   0.181  0.1663  0.4139  0.0408
  282TIP3   OH227768   1.469   4.031   5.167  0.2141 -0.6289 -0.0343
  282TIP3    H127769   1.500   3.979   5.092 -0.8354 -0.7829 -0.3856
  282TIP3    H227770   1.449   4.117   5.129  1.8776  0.0491  0.5323
  283TIP3   OH227771   6.316   8.491   0.446  0.3636  0.1354  0.4339
  283TIP3    H127772   6.272   0.034   0.478  2.5351  1.1337  1.1860
  283TIP3    H227773   6.384   8.473   0.512 -0.6329 -2.9808  0.8074
  284TIP3   OH227774   5.728   7.098   6.486  0.0876 -0.0243 -0.5294
  284TIP3    H127775   5.819   7.129   6.482 -0.4636  1.5139 -2.3707
  284TIP3    H227776   5.729   7.015   6.439  0.5827 -0.2058 -0.2151
  285TIP3   OH227777   4.458   7.303   0.755  0.2185 -0.7259  0.4552
  285TIP3    H127778   4.511   7.372   0.715  0.7396 -1.5508 -0.2983
  285TIP3    H227779   4.385   7.351   0.796  0.6727  0.2895  0.1222
  286TIP3   OH227780   2.790   2.673   1.044  0.4305  0.0871  0.4977
  286TIP3    H127781   2.883   2.674   1.022  0.2998 -1.5099 -0.2726
  286TIP3    H227782   2.787   2.648   1.136  0.7412 -1.0147  0.2197
  287TIP3   OH227783   7.554   2.034   1.796  0.0573 -0.1489 -0.0415
  287TIP3    H127784   7.594   1.947   1.800  0.5253  0.1083  2.0731
  287TIP3    H227785   7.470   2.020   1.752  0.1670 -1.6502  0.1818
  288TIP3   OH227786   6.525   8.066   6.009 -0.0651 -0.7329 -0.2241
  288TIP3    H127787   6.511   8.012   6.087  1.5158  0.6031  1.0703
  288TIP3    H227788   6.512   8.006   5.936 -0.1694 -2.4056  1.1042
  289TIP3   OH227789   1.743   1.033   0.292 -0.2000 -0.0775  0.0034
  289TIP3    H127790   1.696   0.984   0.225 -1.2962  0.6245  0.2325
  289TIP3    H227791   1.811   0.972   0.322  0.4715 -0.3246 -1.8709
  290TIP3   OH227792   2.360   4.350   6.294 -0.2864 -0.2543 -0.0911
  290TIP3    H127793   2.384   4.410   6.223 -0.2048  3.4056  2.7156
  290TIP3    H227794   2.268   4.329   6.278 -0.1377  0.0827 -1.5129
  291TIP3   OH227795   0.779   6.076   5.459 -0.4518 -0.7075 -0.1167
  291TIP3    H127796   0.728   6.119   5.391  0.6278  1.1820  0.2061
  291TIP3    H227797   0.724   6.003   5.487 -1.2653 -1.0513 -2.4198
  292TIP3   OH227798   6.968   5.880   5.945  0.2562 -0.4563 -0.3909
  292TIP3    H127799   7.030   5.952   5.932  0.4215 -0.5809 -0.2905
  292TIP3    H227800   6.894   5.901   5.887  0.5697 -0.5172 -0.8128
  293TIP3   OH227801   7.423   6.554   1.470  0.0321 -0.1393  0.0568
  293TIP3    H127802   7.371   6.626   1.506 -0.3128 -0.3128 -0.0941
  293TIP3    H227803   7.464   6.590   1.392 -0.0965 -0.0924  0.0117
  294TIP3   OH227804   7.560   3.056   5.504 -0.2715 -0.1568  0.4557
  294TIP3    H127805   7.555   3.092   5.415 -1.0097 -1.2061  0.0558
  294TIP3    H227806   7.480   3.003   5.513  0.6193 -1.4162  1.1391
  295TIP3   OH227807   8.128   4.815   0.747  0.4637 -0.1152  0.0013
  295TIP3    H127808   8.176   4.763   0.684 -1.3063 -0.7808 -0.8720
  295TIP3    H227809   8.037   4.787   0.737 -0.6664  3.3520 -0.7660
  296TIP3   OH227810   4.392   3.388   6.898 -0.3849 -0.0113  0.2968
  296TIP3    H127811   4.449   3.348   6.832 -1.1484 -0.6581  0.0144
  296TIP3    H227812   4.397   3.329   6.973  0.4117  0.6752  0.8089
  297TIP3   OH227813   6.602   4.027   1.213  0.1853 -0.0143  0.3957
  297TIP3    H127814   6.651   4.070   1.143  0.5852  0.1697  0.7825
  297TIP3    H227815   6.513   4.016   1.178  0.7850 -1.4934 -0.8049
  298TIP3   OH227816   0.318   4.360   0.551  0.2702 -0.0511  0.0404
  298TIP3    H127817   0.403   4.329   0.581  0.6036 -0.2318 -1.0363
  298TIP3    H227818   0.337   4.440   0.502 -0.2995  0.4791  0.6728
  299TIP3   OH227819   3.221   3.365   6.214 -0.1294  0.3308  0.2435
  299TIP3    H127820   3.138   3.411   6.205 -0.8103 -1.0234 -0.9208
  299TIP3    H227821   3.223   3.304   6.140  0.7811 -1.3873  1.5810
  300TIP3   OH227822   8.259   0.577   1.073  0.0414  0.0888 -0.1655
  300TIP3    H127823   8.300   0.654   1.113 -0.4469  0.2202  0.0833
  300TIP3    H227824   8.248   0.516   1.146  0.0913 -0.0781 -0.2962
  301TIP3   OH227825   8.358   3.889   1.176 -0.2790 -0.5503  0.5884
  301TIP3    H127826   8.453   3.893   1.183 -0.1407 -1.3726 -0.6114
  301TIP3    H227827   8.327   3.903   1.266  0.8825  1.2656  0.7647
  302TIP3   OH227828   0.305   4.671   5.896 -0.2768  0.2367  0.1897
  302TIP3    H127829   0.301   4.712   5.983 -3.1374 -0.2014  0.3782
  302TIP3    H227830   0.332   4.741   5.837  1.6289  0.5653  1.3626
  303TIP3   OH227831   7.955   8.396   0.713 -0.2422  0.3201  0.1248
  303TIP3    H127832   7.984   8.478   0.674 -0.9646  0.5396  0.0368
  303TIP3    H227833   7.859   8.402   0.714 -0.3048 -0.5546  0.0402
  304TIP3   OH227834   5.229   7.885   0.622  0.6601  0.1174  0.5885
  304TIP3    H127835   5.253   7.968   0.581  0.7846 -0.9558 -1.6544
  304TIP3    H227836   5.308   7.831   0.615 -0.1387 -0.9906 -0.2464
  305TIP3   OH227837   7.155   6.688   6.795  0.3430  0.2667 -0.2535
  305TIP3    H127838   7.170   6.748   6.722 -0.0843  0.7650  0.0669
  305TIP3    H227839   7.061   6.673   6.795  0.0772  1.7075  1.3019
  306TIP3   OH227840   6.457   3.061   6.075 -0.3302  0.2263  0.5276
  306TIP3    H127841   6.512   3.136   6.096 -0.6911  0.6443 -0.0175
  306TIP3    H227842   6.519   2.993   6.047 -0.1547  1.1443 -1.4363
  307TIP3   OH227843   6.238   4.655   0.923  0.2131  0.4306 -0.2268
  307TIP3    H127844   6.172   4.593   0.955 -0.3294  0.8975 -0.4297
  307TIP3    H227845   6.257   4.626   0.834 -0.9848  1.2863 -0.7920
  308TIP3   OH227846   2.346   6.788   1.329  0.5978 -0.3188 -0.4489
  308TIP3    H127847   2.278   6.813   1.391  0.1062 -0.8347 -0.7650
  308TIP3    H227848   2.428   6.793   1.379  0.4095  0.9188 -0.2364
  309TIP3   OH227849   8.435   2.082   0.005 -0.2239  0.5091 -0.0796
  309TIP3    H127850   8.372   2.120   7.015 -0.8745  0.8621  0.8024
  309TIP3    H227851   8.475   2.158   0.049  0.8641  0.2955 -0.6653
  310TIP3   OH227852   7.222   7.753   5.801  0.0047  0.1636 -0.1784
  310TIP3    H127853   7.208   7.848   5.790 -1.1671 -0.0614 -0.8727
  310TIP3    H227854   7.135   7.715   5.787  0.5872 -1.0734 -0.5760
  311TIP3   OH227855   0.203   1.818   0.934  0.4664 -0.0582 -0.1270
  311TIP3    H127856   0.271   1.754   0.950  0.1750  0.2166  2.8141
  311TIP3    H227857   0.165   1.835   1.021  0.1950  3.6746 -0.7764
  312TIP3   OH227858   1.176   4.633   6.828  0.5027 -0.2094  0.3886
  312TIP3    H127859   1.189   4.719   6.787  2.0838 -0.0874  1.0758
  312TIP3    H227860   1.089   4.606   6.799  1.3791 -0.0395 -2.8878
  313TIP3   OH227861   1.753   7.748   5.627  0.1624 -0.6292 -0.6730
  313TIP3    H127862   1.676   7.704   5.591  0.8529 -1.3022 -1.3736
  313TIP3    H227863   1.797   7.785   5.550  2.1155 -2.8127 -0.6750
  314TIP3   OH227864   4.624   6.984   1.288 -0.5077 -0.5033 -0.1324
  314TIP3    H127865   4.647   7.047   1.220  0.6979 -0.1075  0.6252
  314TIP3    H227866   4.643   7.029   1.370  0.3821 -1.8326  0.4229
  315TIP3   OH227867   4.667   7.249   6.605 -0.1142  0.0324 -0.6681
  315TIP3    H127868   4.653   7.182   6.672 -1.3025 -0.0586 -0.9682
  315TIP3    H227869   4.632   7.329   6.644  0.3214  0.2496 -0.7188
  316TIP3   OH227870   7.139   0.042   5.414 -0.0840  0.4268 -0.5824
  316TIP3    H127871   7.175   0.047   5.326  1.0056 -1.8346 -0.3403
  316TIP3    H227872   7.065   8.517   5.406  1.6499 -1.9889  0.4303
  317TIP3   OH227873   6.899   7.979   5.676  0.5019 -0.3639  0.3765
  317TIP3    H127874   6.981   7.967   5.627  1.3903  1.2272  1.3592
  317TIP3    H227875   6.927   7.990   5.767 -0.5610  2.1597  0.4929
  318TIP3   OH227876   0.471   6.389   6.803 -0.4558 -0.0378  0.5881
  318TIP3    H127877   0.500   6.395   6.894  0.3718 -1.1320  0.4286
  318TIP3    H227878   0.453   6.479   6.777 -1.4177  0.2312  2.0442
  319TIP3   OH227879   4.359   2.260   5.327  0.2059  0.0356 -0.5924
  319TIP3    H127880   4.299   2.332   5.347  1.9730  0.8935  2.1398
  319TIP3    H227881   4.401   2.285   5.245  0.0590  1.6404 -0.2011
  320TIP3   OH227882   5.036   5.249   1.381  0.5474 -0.1911 -0.4917
  320TIP3    H127883   4.970   5.248   1.450  1.0766 -2.6068  0.0542
  320TIP3    H227884   5.057   5.342   1.371 -0.3057  0.3413  1.8432
  321TIP3   OH227885   7.583   2.395   0.166 -0.4595 -0.1382 -0.4673
  321TIP3    H127886   7.607   2.317   0.217 -1.4409  0.1770  0.4935
  321TIP3    H227887   7.537   2.360   0.090  0.7182 -0.5921 -0.9973
  322TIP3   OH227888   0.839   4.242   6.822  0.2073  0.3150 -0.5540
  322TIP3    H127889   0.801   4.293   6.751  2.3662  1.4142 -0.9898
  322TIP3    H227890   0.832   4.151   6.793 -4.0003  0.1554  0.3801
  323TIP3   OH227891   5.527   8.461   4.663 -0.4262 -0.5688 -0.4365
  323TIP3    H127892   5.461   8.530   4.661 -0.5920 -0.5186  2.3215
  323TIP3    H227893   5.608   8.506   4.690  0.2486 -0.9635 -1.7532
  324TIP3   OH227894   0.346   7.499   6.320  0.5779  0.0051  0.2398
  324TIP3    H127895   0.354   7.408   6.291  1.3857  0.1508 -0.0500
  324TIP3    H227896   0.394   7.502   6.403  0.8294  0.2247  0.0904
  325TIP3   OH227897   0.376   0.500   0.078  0.4906  0.5797 -0.1764
  325TIP3    H127898   0.318   0.572   0.100 -0.2219  0.3933 -1.4114
  325TIP3    H227899   0.393   0.509   7.056 -0.6150 -1.5294 -0.6580
  326TIP3   OH227900   5.629   1.953   6.042  0.6078  0.0872 -0.3317
  326TIP3    H127901   5.665   1.876   5.999  0.2390 -0.3264  0.0940
  326TIP3    H227902   5.685   2.025   6.012  0.9153 -0.3313 -0.7777
  327TIP3   OH227903   2.412   2.137   0.000  0.0546 -0.2062 -0.2652
  327TIP3    H127904   2.352   2.194   0.048  0.4272 -0.2090  0.2190
  327TIP3    H227905   2.419   2.177   6.985  0.9931  0.9900  0.3368
  328TIP3   OH227906   8.081   3.143   0.325 -0.6656 -0.0267  0.2242
  328TIP3    H127907   8.027   3.173   0.398 -0.2717  1.2830 -0.0056
  328TIP3    H227908   8.023   3.146   0.249 -0.8968 -0.7891  0.3638
  329TIP3   OH227909   4.634   5.256   0.205 -0.9050 -0.3848  0.1546
  329TIP3    H127910   4.652   5.169   0.169 -0.7273 -0.6400  0.8499
  329TIP3    H227911   4.545   5.275   0.175 -0.1101  0.2297 -2.0010
  330TIP3   OH227912   1.875   2.762   6.318 -0.4288 -0.0793 -0.0098
  330TIP3    H127913   1.952   2.725   6.361  0.2808  1.8417  0.4598
  330TIP3    H227914   1.874   2.721   6.231  1.7327  0.5804 -0.4125
  331TIP3   OH227915   2.258   4.600   0.757  0.0815  0.6248  0.6152
  331TIP3    H127916   2.353   4.604   0.774  0.1240  2.7974  0.0882
  331TIP3    H227917   2.218   4.632   0.837 -0.2923 -0.9022  1.0837
  332TIP3   OH227918   7.168   5.526   5.299 -0.0212 -0.4542  0.1549
  332TIP3    H127919   7.251   5.574   5.303  0.1032 -0.6090 -0.5690
  332TIP3    H227920   7.102   5.591   5.324  0.0430  0.3630 -1.6688
  333TIP3   OH227921   7.847   4.598   0.494  0.2135 -0.3858 -0.2888
  333TIP3    H127922   7.783   4.583   0.425 -0.1364 -1.1490  0.1907
  333TIP3    H227923   7.931   4.575   0.454 -0.2303 -3.3542  0.2486
  334TIP3   OH227924   5.980   4.498   0.593 -0.7824 -0.2441 -0.5611
  334TIP3    H127925   5.889   4.468   0.585 -0.9102 -0.8031  2.0534
  334TIP3    H227926   5.977   4.590   0.567 -2.1836 -0.1394 -0.1114
  335TIP3   OH227927   8.154   2.692   1.015  0.4005  0.0599 -0.4628
  335TIP3    H127928   8.203   2.614   0.990 -1.4937 -0.4281 -3.0131
  335TIP3    H227929   8.160   2.750   0.939 -1.6964  0.5865 -0.2877
  336TIP3   OH227930   5.552   8.389   0.347  0.8903 -0.2782  0.4975
  336TIP3    H127931   5.556   8.481   0.374  2.0534 -0.3578  0.6705
  336TIP3    H227932   5.462   8.362   0.366  0.2178  1.1117 -0.5783
  337TIP3   OH227933   1.497   2.098   5.851 -0.0002 -0.2130  0.0932
  337TIP3    H127934   1.473   2.032   5.786 -2.0973  0.1118  0.4611
  337TIP3    H227935   1.574   2.061   5.894 -1.2575 -2.6344  0.4954
  338TIP3   OH227936   1.948   4.896   6.276  0.0085 -0.2451  0.4696
  338TIP3    H127937   1.996   4.885   6.358 -1.0114  0.3833  1.1701
  338TIP3    H227938   1.863   4.930   6.302  0.6900  2.9829 -1.0498
  339TIP3   OH227939   6.701   1.993   5.996  0.3804 -0.1489  0.1625
  339TIP3    H127940   6.725   1.935   6.068  0.6048 -2.5120 -1.6948
  339TIP3    H227941   6.608   2.011   6.010  0.5129 -0.2106  1.2366
  340TIP3   OH227942   1.111   4.399   4.914 -0.4045 -0.5439 -0.3747
  340TIP3    H127943   1.091   4.306   4.906 -0.7966 -0.3335 -2.2617
  340TIP3    H227944   1.033   4.437   4.955 -1.6844 -0.5974 -2.5902
  341TIP3   OH227945   7.366   6.397   5.336 -0.3285  0.0921 -0.9663
  341TIP3    H127946   7.452   6.436   5.355  0.2255 -2.3973  2.5695
  341TIP3    H227947   7.380   6.342   5.259  1.1441  0.0631 -0.6966
  342TIP3   OH227948   5.793   4.575   0.292 -0.2888 -0.1234 -0.4408
  342TIP3    H127949   5.825   4.536   0.211 -0.4392 -1.1574 -0.0275
  342TIP3    H227950   5.860   4.638   0.317  1.3314 -2.0038  0.2425
  343TIP3   OH227951   3.255   5.643   0.609  0.1462 -0.4499 -0.2299
  343TIP3    H127952   3.238   5.644   0.514 -2.8219 -1.7096  0.1710
  343TIP3    H227953   3.241   5.733   0.637 -0.4794 -0.3545 -0.8138
  344TIP3   OH227954   3.614   5.318   6.063  0.0682 -0.7268 -0.1370
  344TIP3    H127955   3.660   5.297   6.144  0.4596 -0.1920 -0.2110
  344TIP3    H227956   3.684   5.340   6.001 -0.2851  0.3051 -0.1955
  345TIP3   OH227957   7.497   6.649   0.635 -0.2617  0.0829 -0.5082
  345TIP3    H127958   7.549   6.720   0.599  0.5871 -0.3810 -0.2247
  345TIP3    H227959   7.558   6.598   0.688 -1.2981  0.3282  1.0136
  346TIP3   OH227960   3.580   6.977   6.530  0.0099  0.0750 -0.3101
  346TIP3    H127961   3.506   6.947   6.476 -0.3469  1.3979 -0.5887
  346TIP3    H227962   3.540   7.005   6.612  0.0778  1.4944 -0.7348
  347TIP3   OH227963   6.834   0.483   6.189  0.1191  0.2126  0.2923
  347TIP3    H127964   6.922   0.516   6.209  0.7458 -1.6777  0.8580
  347TIP3    H227965   6.775   0.544   6.234  0.8897  3.2115 -2.3720
  348TIP3   OH227966   0.260   0.414   1.720  0.5665  0.4481 -0.1312
  348TIP3    H127967   0.278   0.475   1.649  1.2545  1.3984  0.8158
  348TIP3    H227968   0.180   0.447   1.761  0.4506  0.1981 -0.1543
  349TIP3   OH227969   7.726   2.326   0.559 -0.2716  0.4669  0.0894
  349TIP3    H127970   7.638   2.358   0.540 -0.4205 -0.0177 -0.0514
  349TIP3    H227971   7.773   2.403   0.591 -0.7301  0.7395  0.1181
  350TIP3   OH227972   6.845   3.767   2.220 -0.0946  0.0224 -0.0070
  350TIP3    H127973   6.792   3.687   2.222 -2.6407  1.5432  3.0861
  350TIP3    H227974   6.783   3.836   2.200  2.0050  1.3805 -2.3848
  351TIP3   OH227975   0.846   5.279   0.498  0.1641  0.3878 -0.1841
  351TIP3    H127976   0.775   5.248   0.553  0.8746 -0.4405  0.2869
  351TIP3    H227977   0.823   5.250   0.410 -0.7195  1.2739 -0.2630
  352TIP3   OH227978   4.982   6.379   1.695  0.5045  0.9096  0.1187
  352TIP3    H127979   4.896   6.416   1.717  0.9233  2.0922 -0.1466
  352TIP3    H227980   5.035   6.455   1.671  1.2475  0.0693 -1.0004
  353TIP3   OH227981   3.213   0.625   5.258 -0.5527 -0.3595 -0.6472
  353TIP3    H127982   3.229   0.682   5.333 -0.6369  0.2158 -1.0517
  353TIP3    H227983   3.292   0.635   5.204  1.6158 -4.1827  1.4047
  354TIP3   OH227984   6.517   3.241   0.490  0.4132 -0.5659 -0.2541
  354TIP3    H127985   6.432   3.209   0.457  0.1263 -0.2562  0.1722
  354TIP3    H227986   6.494   3.301   0.561  0.8937  0.9859 -1.3320
  355TIP3   OH227987   4.279   7.810   6.661 -0.0889  0.6875  0.0041
  355TIP3    H127988   4.265   7.716   6.668  0.8651  0.3389 -2.0348
  355TIP3    H227989   4.371   7.819   6.634 -0.6736  2.0981 -1.6588
  356TIP3   OH227990   8.251   1.715   2.019 -0.2418 -0.0107  0.2262
  356TIP3    H127991   8.323   1.695   1.960 -0.0114 -0.2032  0.5640
  356TIP3    H227992   8.215   1.629   2.043 -0.5121  0.0791  0.1417
  357TIP3   OH227993   6.590   0.008   0.037  0.2082 -0.3351 -0.0558
  357TIP3    H127994   6.554   0.050   7.030 -1.3591 -0.0296  0.7956
  357TIP3    H227995   6.538   8.463   0.047 -0.5438  0.3021  1.4178
  358TIP3   OH227996   1.403   5.858   1.088 -0.0472  0.3117  0.2105
  358TIP3    H127997   1.462   5.853   1.164 -0.3857  2.0686  0.6448
  358TIP3    H227998   1.331   5.799   1.110  0.4862 -0.1859  0.6667
  359TIP3   OH227999   0.961   2.372   5.857 -0.4703 -0.4257  0.0485
  359TIP3    H128000   0.995   2.319   5.929 -0.9603 -0.3229  0.3680
  359TIP3    H228001   0.875   2.402   5.889 -0.2202  0.5223 -0.1392
  360TIP3   OH228002   4.908   2.873   6.219  0.8119 -0.3337 -0.1963
  360TIP3    H128003   4.968   2.857   6.146  0.5622 -1.6488 -0.1495
  360TIP3    H228004   4.936   2.811   6.286  0.0753 -0.2054  0.2399
  361TIP3   OH228005   6.397   2.274   6.596  0.1093  0.5744  0.0919
  361TIP3    H128006   6.475   2.226   6.622  0.3789  0.6264 -0.5869
  361TIP3    H228007   6.351   2.293   6.678 -0.5394 -1.7107  0.3251
  362TIP3   OH228008   2.324   1.608   0.024  0.5127 -0.0102 -0.6280
  362TIP3    H128009   2.274   1.561   7.028  0.1810  1.2410 -1.2726
  362TIP3    H228010   2.270   1.682   0.048  1.8113  1.0872 -0.9586
  363TIP3   OH228011   6.719   4.493   1.289  0.0395 -0.0507  0.1721
  363TIP3    H128012   6.746   4.446   1.367 -0.9957  0.6181  0.9545
  363TIP3    H228013   6.770   4.453   1.218  1.1436 -0.5317  1.1973
  364TIP3   OH228014   6.361   4.348   6.855 -0.2974 -0.3740  0.2157
  364TIP3    H128015   6.377   4.419   6.918 -2.2591  0.4453 -0.1226
  364TIP3    H228016   6.439   4.348   6.799  1.0034 -0.4031  1.9531
  365TIP3   OH228017   3.690   3.057   1.306 -0.1702  0.2583 -0.1706
  365TIP3    H128018   3.712   3.115   1.233  0.0274  0.6709  0.2104
  365TIP3    H228019   3.644   3.113   1.368 -0.1427 -0.0393  0.1196
  366TIP3   OH228020   5.498   0.418   6.411 -0.0747  0.6367 -0.5006
  366TIP3    H128021   5.497   0.465   6.328  0.9138  0.5605 -0.5653
  366TIP3    H228022   5.464   0.331   6.391  0.1912  0.6093 -0.8309
  367TIP3   OH228023   6.870   3.259   1.608  0.1391 -0.2841  0.3683
  367TIP3    H128024   6.930   3.218   1.670 -0.6522 -0.6355  0.9059
  367TIP3    H228025   6.785   3.259   1.652 -0.2938  0.0697 -0.4458
  368TIP3   OH228026   8.507   3.384   0.299  0.0938  0.5472  0.1588
  368TIP3    H128027   8.515   3.289   0.289  0.5987  0.7677 -2.2251
  368TIP3    H228028   8.476   3.396   0.389 -0.2515 -1.8717  0.4455
  369TIP3   OH228029   4.164   0.050   1.364 -0.1565  0.0044 -0.1399
  369TIP3    H128030   4.172   0.048   1.269  1.2948 -1.8251 -0.0252
  369TIP3    H228031   4.082   0.003   1.382  0.0730 -0.5380 -0.4708
  370TIP3   OH228032   4.960   7.708   5.430  0.1183 -0.2896  0.1585
  370TIP3    H128033   4.992   7.618   5.421  1.0195 -0.0833  1.0405
  370TIP3    H228034   4.969   7.745   5.343  0.7621 -0.7430  0.0202
  371TIP3   OH228035   3.950   7.126   0.673  0.1608 -0.0048 -0.4178
  371TIP3    H128036   3.951   7.103   0.766 -2.0408 -1.3362 -0.6597
  371TIP3    H228037   3.959   7.221   0.671  0.9542 -0.0318  1.1079
  372TIP3   OH228038   7.231   6.879   0.918 -0.4742 -0.4179  0.7620
  372TIP3    H128039   7.312   6.843   0.955  0.4735  0.7896 -0.0396
  372TIP3    H228040   7.254   6.903   0.828 -1.1508  1.6148  1.0640
  373TIP3   OH228041   5.126   0.504   6.520  0.3578 -0.1411 -0.3406
  373TIP3    H128042   5.038   0.495   6.483  0.5248 -1.3220 -0.4978
  373TIP3    H228043   5.116   0.474   6.611  0.7483 -0.9945 -0.5783
  374TIP3   OH228044   2.939   6.292   6.697  0.0495  0.2397 -0.3745
  374TIP3    H128045   2.850   6.275   6.665  0.4731  2.8517 -3.4765
  374TIP3    H228046   2.986   6.210   6.682 -1.5355 -0.8516  0.3447
  375TIP3   OH228047   1.077   6.630   6.030  0.1644  0.3045  0.5747
  375TIP3    H128048   1.073   6.545   6.073 -0.6256 -0.5354 -1.0748
  375TIP3    H228049   1.018   6.622   5.955  0.1641  2.2701  0.3077
  376TIP3   OH228050   3.161   7.108   2.024 -0.2504 -0.1951 -0.3024
  376TIP3    H128051   3.129   7.040   1.965  0.0679 -2.4407  1.9507
  376TIP3    H228052   3.241   7.071   2.062 -0.5023  1.0967  1.6027
  377TIP3   OH228053   4.011   5.648   6.355 -0.1898 -0.3460  0.1785
  377TIP3    H128054   4.106   5.639   6.356 -0.2969 -3.0008 -2.1486
  377TIP3    H228055   3.996   5.742   6.362  2.5350  0.1035  1.2124
  378TIP3   OH228056   5.436   2.750   0.124 -0.0287 -0.2591  0.0641
  378TIP3    H128057   5.473   2.802   0.195  0.1825  0.6300 -0.6789
  378TIP3    H228058   5.341   2.758   0.136 -0.0347  1.3805 -0.7710
  379TIP3   OH228059   3.737   6.260   1.023  0.0229  0.2212 -0.3488
  379TIP3    H128060   3.685   6.334   1.054  0.3877  0.7774 -1.0442
  379TIP3    H228061   3.696   6.234   0.941 -0.9983 -1.3156  0.5979
  380TIP3   OH228062   7.047   5.355   1.106 -0.0339  0.4206 -0.8517
  380TIP3    H128063   6.966   5.332   1.060  1.1932 -0.4769 -2.7070
  380TIP3    H228064   7.082   5.430   1.057  1.6426 -0.9749 -1.8994
  381TIP3   OH228065   8.050   5.436   2.118  0.7918  0.8645 -0.4861
  381TIP3    H128066   8.033   5.342   2.125  1.5750  0.8184  3.2757
  381TIP3    H228067   7.964   5.476   2.106  0.1564 -0.2634  0.1883
  382TIP3   OH228068   6.969   8.162   0.675 -0.1086  0.5206  0.4851
  382TIP3    H128069   7.012   8.244   0.697 -1.1172  1.7218 -1.7338
  382TIP3    H228070   6.878   8.174   0.701 -0.1305 -0.1445  0.7372
  383TIP3   OH228071   2.132   7.351   1.395  0.2002 -0.3070  0.8674
  383TIP3    H128072   2.099   7.347   1.485  0.8749  2.8135  1.3840
  383TIP3    H228073   2.212   7.404   1.402  0.9861 -1.0780 -1.4223
  384TIP3   OH228074   1.827   0.531   1.783 -0.3114 -0.3927  0.2208
  384TIP3    H128075   1.912   0.547   1.740  0.6524 -1.7145  1.5399
  384TIP3    H228076   1.844   0.549   1.876 -0.6610 -3.3257  0.9413
  385TIP3   OH228077   0.172   3.858   6.277  0.2508  0.4621 -0.2021
  385TIP3    H128078   0.086   3.879   6.242 -0.1964 -0.7539  0.0998
  385TIP3    H228079   0.231   3.921   6.236 -0.4633  0.0207 -2.0303
  386TIP3   OH228080   4.440   2.852   0.548 -0.4715 -0.5100  1.0324
  386TIP3    H128081   4.349   2.876   0.533 -0.1860  0.5296  0.9189
  386TIP3    H228082   4.491   2.927   0.518  0.4442 -1.1667  0.8662
  387TIP3   OH228083   0.103   4.187   0.707 -0.4305  0.2592 -0.5889
  387TIP3    H128084   0.137   4.260   0.655 -0.5816 -0.9772 -2.5467
  387TIP3    H228085   0.008   4.189   0.691 -0.1675 -2.2933 -3.5561
  388TIP3   OH228086   3.426   7.805   0.746  0.0524 -0.8839  0.2731
  388TIP3    H128087   3.480   7.743   0.795  2.4401 -0.2248 -1.3279
  388TIP3    H228088   3.485   7.878   0.726 -1.5661  0.1016 -1.2288
  389TIP3   OH228089   1.237   7.580   5.070  0.4526 -0.6499 -0.0597
  389TIP3    H128090   1.329   7.582   5.046  0.6876 -0.9045  0.7645
  389TIP3    H228091   1.233   7.518   5.143 -0.5455 -1.4568 -0.7823
  390TIP3   OH228092   5.922   6.628   1.081 -0.2069  0.1855 -0.5045
  390TIP3    H128093   5.887   6.591   1.162 -0.4863 -0.1080 -0.7537
  390TIP3    H228094   5.850   6.618   1.018  0.8687 -1.9684 -1.4889
  391TIP3   OH228095   4.175   2.451   5.455  0.2290 -0.2415 -0.4456
  391TIP3    H128096   4.215   2.513   5.517 -0.1121  1.7180 -2.0489
  391TIP3    H228097   4.082   2.455   5.474  0.4142 -2.3750  1.1914
  392TIP3   OH228098   7.195   0.224   5.620 -0.3151  0.0586  0.0969
  392TIP3    H128099   7.221   0.299   5.565  0.4095 -1.0132 -1.0716
  392TIP3    H228100   7.156   0.162   5.559  1.8481 -1.8096  0.4766
  393TIP3   OH228101   8.027   0.133   6.020 -0.2775 -0.6136 -0.3212
  393TIP3    H128102   7.994   0.206   6.072  1.0286 -0.1935 -0.0283
  393TIP3    H228103   7.957   0.068   6.022 -0.9989  0.1570  0.3878
  394TIP3   OH228104   5.032   2.660   0.296  0.2772  0.8077  0.0114
  394TIP3    H128105   5.029   2.564   0.303  0.9213  0.7784  0.0100
  394TIP3    H228106   5.073   2.676   0.211 -0.7386  1.0954 -0.4293
  395TIP3   OH228107   7.407   0.854   6.939 -0.5423  0.1185  0.4517
  395TIP3    H128108   7.327   0.862   6.886  0.6391  1.9590 -1.1940
  395TIP3    H228109   7.432   0.944   6.958  0.4698 -0.4570  2.0760
  396TIP3   OH228110   1.644   5.404   0.087  0.4924  0.3828  0.6249
  396TIP3    H128111   1.639   5.309   0.096  0.7818  0.4698  1.9090
  396TIP3    H228112   1.558   5.436   0.114  0.3335  0.4879  0.0188
  397TIP3   OH228113   2.913   6.588   6.690  0.2514 -0.0822  0.4875
  397TIP3    H128114   2.826   6.613   6.721  0.4567  1.5905 -0.1928
  397TIP3    H228115   2.908   6.493   6.679 -1.4647 -0.0264  0.5078
  398TIP3   OH228116   1.239   5.437   5.106 -0.2887 -0.1840 -0.3187
  398TIP3    H128117   1.179   5.383   5.055 -0.4434  1.3908 -1.8946
  398TIP3    H228118   1.192   5.518   5.122 -0.2129 -0.5957  2.3696
  399TIP3   OH228119   4.115   0.036   0.296  0.6164 -0.4312 -0.2070
  399TIP3    H128120   4.158   8.520   0.364  0.1634 -0.4898  0.0399
  399TIP3    H228121   4.065   0.103   0.343  0.1184 -0.6138 -0.4712
  400TIP3   OH228122   3.527   5.403   6.667  0.3917  0.6416  0.0473
  400TIP3    H128123   3.479   5.402   6.584  0.0607 -1.2685  0.2122
  400TIP3    H228124   3.619   5.399   6.642  0.3205  0.6859 -0.2198
  401TIP3   OH228125   7.719   5.853   1.439  0.3591 -0.0793 -0.0239
  401TIP3    H128126   7.758   5.799   1.370 -1.3908 -0.6543 -0.6215
  401TIP3    H228127   7.626   5.830   1.437 -0.0001  1.1331  1.4165
  402TIP3   OH228128   1.607   8.477   5.084  0.3664 -0.2019  0.2957
  402TIP3    H128129   1.615   0.024   5.134  2.2758  0.2270 -0.6214
  402TIP3    H228130   1.529   8.490   5.030  0.7661  1.1134 -0.0022
  403TIP3   OH228131   2.370   6.878   0.105 -0.2241  0.0960 -0.7042
  403TIP3    H128132   2.411   6.812   0.160  1.7140  0.5921 -1.4857
  403TIP3    H228133   2.284   6.892   0.144 -0.1085 -1.8107  0.3293
  404TIP3   OH228134   2.934   1.401   6.371  0.1006 -0.1156 -0.2630
  404TIP3    H128135   2.981   1.319   6.389  0.8923  0.4807  0.4561
  404TIP3    H228136   2.908   1.433   6.458  0.2229  0.6370 -0.4982
  405TIP3   OH228137   0.724   3.221   0.413  0.4779  0.2256 -0.0680
  405TIP3    H128138   0.651   3.182   0.461 -0.5353 -0.4229 -2.0403
  405TIP3    H228139   0.684   3.259   0.335  2.1089  0.9267 -0.6073
  406TIP3   OH228140   6.931   5.630   6.927  0.0509  0.1777 -0.1522
  406TIP3    H128141   6.962   5.539   6.931 -1.9429 -0.5352  2.5470
  406TIP3    H228142   6.985   5.676   6.992  0.7441  0.8545 -1.1822
  407TIP3   OH228143   1.482   0.799   0.257 -0.3993  0.0905 -0.9320
  407TIP3    H128144   1.425   0.724   0.273  0.0378 -0.3500 -1.4194
  407TIP3    H228145   1.555   0.788   0.319 -0.3795  0.1634 -0.9422
  408TIP3   OH228146   5.586   6.067   1.963  0.8434  0.6602 -0.2509
  408TIP3    H128147   5.638   6.146   1.981  1.2736  0.5114 -0.8102
  408TIP3    H228148   5.638   5.996   2.002  0.9191  0.5444 -0.5648
  409TIP3   OH228149   3.032   7.683   7.033 -0.3455 -0.0169 -0.3732
  409TIP3    H128150   2.998   7.604   0.005  1.8880 -0.4610  0.7804
  409TIP3    H228151   3.023   7.752   0.028  0.1854  0.0368 -0.3468
  410TIP3   OH228152   4.199   8.220   0.544  0.0777 -0.3328  0.1912
  410TIP3    H128153   4.108   8.223   0.573  0.2189 -0.4933  0.6623
  410TIP3    H228154   4.225   8.312   0.537  0.1916 -0.2842  1.0805
  411TIP3   OH228155   3.653   6.746   6.762  0.5281 -0.5489 -0.6286
  411TIP3    H128156   3.655   6.651   6.751  2.7991 -0.5201 -1.0017
  411TIP3    H228157   3.717   6.778   6.698  0.9463  1.0881  0.5549
  412TIP3   OH228158   3.894   6.733   6.212  0.2435 -0.7409  0.6011
  412TIP3    H128159   3.888   6.638   6.224 -1.4917 -0.8489 -0.8007
  412TIP3    H228160   3.818   6.768   6.257  0.3378 -0.0981  0.2684
  413TIP3   OH228161   4.056   6.684   5.945  0.1103 -0.0625  0.0315
  413TIP3    H128162   4.104   6.766   5.961 -0.0565 -0.1851  1.3052
  413TIP3    H228163   3.974   6.712   5.905 -0.4611  0.5417  1.5403
  414TIP3   OH228164   2.769   0.354   6.718 -0.4738  0.3723 -0.6863
  414TIP3    H128165   2.725   0.348   6.633 -2.4713  2.0124  0.1322
  414TIP3    H228166   2.820   0.434   6.713 -0.3883  0.3340 -0.4299
  415TIP3   OH228167   5.319   6.015   6.489  0.4999  0.2477 -0.6739
  415TIP3    H128168   5.287   6.002   6.578  1.1726 -1.1404 -0.6100
  415TIP3    H228169   5.405   6.056   6.500  0.6079  0.0237 -0.6788
  416TIP3   OH228170   8.055   0.578   6.984 -0.1176 -0.0500 -0.2337
  416TIP3    H128171   8.103   0.573   7.066  0.5223 -1.3887 -0.6604
  416TIP3    H228172   8.086   0.659   6.943  1.1456 -0.4440 -0.0977
  417TIP3   OH228173   6.182   5.473   0.165 -0.0374  0.1809  0.5921
  417TIP3    H128174   6.157   5.564   0.149 -0.1060  0.1762  0.6663
  417TIP3    H228175   6.110   5.438   0.218  0.2094  0.2177  0.9614
  418TIP3   OH228176   1.031   0.802   6.430 -0.2848 -0.3401 -0.5189
  418TIP3    H128177   0.973   0.852   6.488 -0.6873 -0.8164 -0.5018
  418TIP3    H228178   1.117   0.806   6.473 -0.3190  0.2986 -0.5008
  419TIP3   OH228179   4.425   7.842   0.372  0.0038  0.0817 -0.0203
  419TIP3    H128180   4.361   7.893   0.422 -0.4377 -0.4899  0.0126
  419TIP3    H228181   4.446   7.897   0.297 -0.7034  0.1827 -0.1495
  420TIP3   OH228182   0.090   2.994   6.259  0.3998  0.5131  0.2089
  420TIP3    H128183   8.533   2.993   6.286  0.1966  1.2791 -0.4180
  420TIP3    H228184   0.135   3.042   6.329  0.6431 -1.4164  1.4260
  421TIP3   OH228185   4.690   3.446   5.583 -0.5165  0.4146 -0.4377
  421TIP3    H128186   4.671   3.474   5.672  0.6403  0.0865 -0.0771
  421TIP3    H228187   4.723   3.524   5.539  0.7346  0.1513 -0.0171
  422TIP3   OH228188   3.251   1.650   7.042 -0.2801  0.3858  0.0544
  422TIP3    H128189   3.315   1.702   0.020  0.7016 -0.5000 -0.2583
  422TIP3    H228190   3.193   1.715   7.002  0.3408  1.2024  0.4475
  423TIP3   OH228191   4.509   8.313   2.050 -0.1839 -0.0341  0.1869
  423TIP3    H128192   4.445   8.267   2.105 -0.0427 -1.3486 -0.6818
  423TIP3    H228193   4.555   8.242   2.003 -0.6159  1.0170 -1.9600
  424TIP3   OH228194   3.691   6.439   5.768  0.0998 -0.2626  0.3760
  424TIP3    H128195   3.631   6.446   5.694 -0.7511 -0.7502  1.0062
  424TIP3    H228196   3.778   6.447   5.729 -0.3763  1.2815 -0.4592
  425TIP3   OH228197   5.401   3.329   6.504 -0.4177 -0.0151  0.2167
  425TIP3    H128198   5.488   3.330   6.544  0.0533 -1.3014 -0.6844
  425TIP3    H228199   5.395   3.411   6.456  0.6356 -0.2611 -0.3599
  426TIP3   OH228200   5.844   5.472   6.242 -0.2554 -0.0027  0.1484
  426TIP3    H128201   5.853   5.544   6.179 -0.7159 -0.4805 -0.4683
  426TIP3    H228202   5.909   5.408   6.215  1.2461  0.8016  1.6112
  427TIP3   OH228203   1.258   3.639   6.581 -0.7003 -0.5349  0.2907
  427TIP3    H128204   1.210   3.580   6.523 -0.5135 -0.3919 -0.0098
  427TIP3    H228205   1.230   3.613   6.669 -3.1026  1.0216  0.0989
  428TIP3   OH228206   2.579   8.285   0.238  0.5381 -0.1586  0.6392
  428TIP3    H128207   2.577   8.339   0.317 -1.0572  3.4812 -1.5853
  428TIP3    H228208   2.651   8.322   0.186 -1.1029  0.4900 -1.3035
  429TIP3   OH228209   6.642   2.674   5.776 -0.0334  1.1632  0.1240
  429TIP3    H128210   6.720   2.624   5.751 -0.2671  0.6566  0.3862
  429TIP3    H228211   6.578   2.654   5.708 -0.1963  0.9316  0.3419
  430TIP3   OH228212   7.111   7.149   1.617  0.0542  0.0418  0.1565
  430TIP3    H128213   7.107   7.067   1.567 -0.5671  1.0877 -1.5899
  430TIP3    H228214   7.025   7.155   1.660  0.7736 -1.1143  1.8537
  431TIP3   OH228215   5.837   6.119   1.256 -0.4204 -0.3691 -0.2313
  431TIP3    H128216   5.889   6.185   1.211  0.7640  1.2349  3.1279
  431TIP3    H228217   5.893   6.041   1.257 -0.4041 -0.3874 -1.2743
  432TIP3   OH228218   1.207   5.916   5.427 -1.1367 -0.2008  0.6396
  432TIP3    H128219   1.144   5.962   5.482 -2.1884 -0.6009 -0.2031
  432TIP3    H228220   1.154   5.859   5.372 -0.0239 -0.6509 -0.0035
  433TIP3   OH228221   2.969   2.483   0.685 -0.4894  0.3090 -0.3713
  433TIP3    H128222   2.922   2.400   0.692  0.8977 -0.5680 -0.9108
  433TIP3    H228223   3.033   2.468   0.615  1.1082  1.1655  0.8368
  434TIP3   OH228224   1.115   1.543   6.411  0.3142 -0.2862 -0.4605
  434TIP3    H128225   1.150   1.623   6.371 -0.0325 -0.1176 -0.4344
  434TIP3    H228226   1.108   1.481   6.338  0.6047 -0.2992 -0.4768
  435TIP3   OH228227   4.908   3.611   1.382 -0.4107  0.3617  0.0806
  435TIP3    H128228   4.870   3.581   1.465 -1.6074  0.7945 -0.2892
  435TIP3    H228229   5.002   3.602   1.394 -0.5994 -0.3530  1.1926
  436TIP3   OH228230   7.510   1.073   5.362  0.0122  0.0873 -0.3565
  436TIP3    H128231   7.511   1.168   5.371  1.5219  0.0898 -0.2007
  436TIP3    H228232   7.565   1.042   5.433  0.0620 -0.8602 -0.7958
  437TIP3   OH228233   4.868   7.399   6.482  0.0134 -0.0260 -0.1142
  437TIP3    H128234   4.812   7.349   6.542  1.1626  0.2947  1.2844
  437TIP3    H228235   4.809   7.427   6.412 -1.4259 -0.3026  0.9342
  438TIP3   OH228236   8.216   4.387   0.890 -0.2001 -0.1865  0.4344
  438TIP3    H128237   8.169   4.400   0.807 -1.8005 -0.2325  1.2808
  438TIP3    H228238   8.149   4.354   0.950  1.0643 -0.7310  1.5929
  439TIP3   OH228239   3.826   3.603   0.563 -0.2606 -0.4387  0.3716
  439TIP3    H128240   3.815   3.570   0.652 -0.6595  1.2853  0.9977
  439TIP3    H228241   3.774   3.683   0.560 -0.4472 -0.5717 -1.5013
  440TIP3   OH228242   5.206   5.416   5.689 -0.7234 -0.4926 -0.2648
  440TIP3    H128243   5.301   5.425   5.698 -0.6017 -1.8780  0.1625
  440TIP3    H228244   5.193   5.382   5.600 -1.0641  2.3187 -1.3727
  441TIP3   OH228245   0.244   1.873   6.988  0.1831 -0.2199 -0.0827
  441TIP3    H128246   0.174   1.809   6.999  0.1404 -0.4010 -1.2728
  441TIP3    H228247   0.199   1.956   6.972  0.2229 -0.3332 -0.8305
  442TIP3   OH228248   4.751   2.269   6.632  0.2509 -0.1584  0.0070
  442TIP3    H128249   4.807   2.310   6.566 -1.3305  0.0376 -1.2581
  442TIP3    H228250   4.674   2.240   6.584  0.2803 -2.5909  1.2645
  443TIP3   OH228251   1.889   1.123   5.103 -0.0930 -0.1389 -0.1410
  443TIP3    H128252   1.802   1.161   5.089 -0.4280 -0.8675 -0.0581
  443TIP3    H228253   1.932   1.129   5.017 -0.6519 -0.8382 -0.4829
  444TIP3   OH228254   8.384   4.137   0.670 -0.3807  0.0081 -0.2715
  444TIP3    H128255   8.301   4.103   0.701 -1.8120 -2.6103 -5.6397
  444TIP3    H228256   8.433   4.059   0.643  0.4462  1.6544 -4.1986
  445TIP3   OH228257   1.462   3.502   0.664 -0.6476 -0.4834  0.1182
  445TIP3    H128258   1.527   3.448   0.620  1.5044  1.6731  0.4206
  445TIP3    H228259   1.483   3.492   0.757 -1.5917 -0.7241  0.3138
  446TIP3   OH228260   6.571   5.165   1.376  0.6473  0.0513  0.3249
  446TIP3    H128261   6.577   5.252   1.416  0.5983  1.2049 -2.0064
  446TIP3    H228262   6.658   5.126   1.387  0.8087  0.5902  0.9753
  447TIP3   OH228263   0.878   2.153   0.440  0.2305  0.5699  0.1699
  447TIP3    H128264   0.890   2.060   0.419  1.7479  0.4756  1.2851
  447TIP3    H228265   0.785   2.170   0.422 -0.4730 -1.5651  1.3707
  448TIP3   OH228266   1.867   1.906   0.172  0.1065  0.0677 -0.6827
  448TIP3    H128267   1.825   1.825   0.142 -3.6733  1.6147 -0.1373
  448TIP3    H228268   1.840   1.972   0.108  0.1281  1.5372  0.7740
  449TIP3   OH228269   3.670   3.530   5.409  0.2371 -0.1183  0.0074
  449TIP3    H128270   3.657   3.445   5.451  0.3830 -1.0682 -1.7568
  449TIP3    H228271   3.688   3.509   5.318  3.0488  1.6802  0.0298
  450TIP3   OH228272   1.748   6.800   0.799  0.4090  0.0492  0.0308
  450TIP3    H128273   1.719   6.774   0.712  1.0978 -0.1593 -0.1470
  450TIP3    H228274   1.759   6.717   0.846 -0.6273  0.1862  0.5476
  451TIP3   OH228275   3.889   7.489   6.856 -0.0721  0.5477 -0.1966
  451TIP3    H128276   3.842   7.450   6.930  0.6983 -0.5597 -0.2659
  451TIP3    H228277   3.885   7.584   6.872 -0.6066  0.3631  0.8321
  452TIP3   OH228278   2.356   7.178   1.671  0.1341  0.2526  0.6313
  452TIP3    H128279   2.281   7.193   1.728 -1.5733  2.3669 -1.9647
  452TIP3    H228280   2.404   7.261   1.672 -0.5282  0.7165 -1.7454
  453TIP3   OH228281   1.033   1.167   6.658  0.3393 -0.7663  0.5417
  453TIP3    H128282   1.095   1.099   6.685  0.2265 -0.4443  1.7074
  453TIP3    H228283   1.004   1.206   6.741  0.5635  0.8494 -0.1040
  454TIP3   OH228284   5.986   7.593   1.278  0.1678  0.5417  0.4469
  454TIP3    H128285   6.028   7.660   1.332 -0.2732  0.0494  1.4266
  454TIP3    H228286   6.022   7.510   1.309 -0.3044  0.2290  0.1814
  455TIP3   OH228287   5.927   2.436   0.233  0.2918 -0.3165  0.7087
  455TIP3    H128288   5.897   2.365   0.176  3.2822 -1.4000  0.2943
  455TIP3    H228289   5.900   2.516   0.188 -1.8728 -1.1406  0.4407
  456TIP3   OH228290   7.106   5.403   0.639  0.1056 -0.0486  0.2600
  456TIP3    H128291   7.023   5.363   0.666 -0.2558 -0.2729 -1.0876
  456TIP3    H228292   7.080   5.477   0.584  0.7915 -0.2764 -0.3828
  457TIP3   OH228293   4.914   4.594   0.113 -0.0536 -0.2686 -0.2456
  457TIP3    H128294   4.936   4.555   0.028  0.5095 -1.3088  0.3573
  457TIP3    H228295   4.872   4.523   0.161 -0.2640  0.2846  0.3900
  458TIP3   OH228296   0.571   6.302   0.426 -0.3701 -0.1045 -0.0685
  458TIP3    H128297   0.528   6.305   0.511 -1.2824 -0.1749 -0.5084
  458TIP3    H228298   0.539   6.380   0.380  2.7193  1.8629  0.8187
  459TIP3   OH228299   6.077   5.715   0.168  0.0361  0.4050  0.2399
  459TIP3    H128300   6.013   5.771   0.124 -0.7718 -0.4384  0.3042
  459TIP3    H228301   6.080   5.748   0.258  1.9619  2.3685 -0.4611
  460TIP3   OH228302   7.407   7.973   1.464 -0.1267  0.3187  0.5500
  460TIP3    H128303   7.347   8.045   1.447  0.0871  0.2151 -0.7637
  460TIP3    H228304   7.368   7.898   1.420  0.5336  0.0656  0.3788
  461TIP3   OH228305   6.076   2.305   0.634  0.0689  0.0774 -0.1809
  461TIP3    H128306   6.103   2.377   0.576 -0.9985  1.2193  0.6989
  461TIP3    H228307   6.053   2.234   0.574 -1.4944  1.3968 -1.2291
  462TIP3   OH228308   4.380   4.752   0.871 -0.1687  0.0857 -0.3516
  462TIP3    H128309   4.369   4.783   0.961 -0.1420 -0.7077 -0.0635
  462TIP3    H228310   4.469   4.777   0.848  0.5640 -1.4761  0.5865
  463TIP3   OH228311   8.043   7.217   6.753 -0.7678 -0.9022 -0.4696
  463TIP3    H128312   8.042   7.281   6.823 -0.2767 -0.2159 -1.0787
  463TIP3    H228313   7.964   7.164   6.767 -2.1297  0.9102 -0.9512
  464TIP3   OH228314   1.644   5.063   6.056 -0.0137  0.1763 -0.4197
  464TIP3    H128315   1.695   5.136   6.021  1.2443 -0.9957 -1.1248
  464TIP3    H228316   1.678   4.986   6.010  0.2806 -1.1609  1.8868
  465TIP3   OH228317   4.084   1.561   6.693 -0.3582  0.0675  0.0111
  465TIP3    H128318   4.028   1.486   6.715 -0.5992  0.1963 -0.1530
  465TIP3    H228319   4.082   1.565   6.597  2.4981 -1.8729 -0.2406
  466TIP3   OH228320   1.643   0.945   0.053 -0.6501 -0.1695 -0.2859
  466TIP3    H128321   1.612   0.944   7.033  1.5915  2.0054 -1.2109
  466TIP3    H228322   1.638   0.854   0.082 -0.4202 -1.1255 -2.9823
  467TIP3   OH228323   1.598   5.661   0.777  0.1449  0.4088  0.1364
  467TIP3    H128324   1.528   5.725   0.768 -2.8368 -2.3627  1.5613
  467TIP3    H228325   1.579   5.595   0.710  2.3410  0.3314 -0.4665
  468TIP3   OH228326   4.694   5.533   0.828  0.4603  0.1318 -0.2120
  468TIP3    H128327   4.675   5.440   0.828 -1.4418  0.4441  0.9163
  468TIP3    H228328   4.615   5.574   0.792 -0.0199  1.4279  2.0823
  469TIP3   OH228329   6.308   2.064   5.323 -0.0537 -0.0293  0.4898
  469TIP3    H128330   6.375   2.012   5.278  0.3284  0.3623  0.5912
  469TIP3    H228331   6.328   2.154   5.298 -1.4622 -0.0093 -0.6871
  470TIP3   OH228332   4.035   6.834   5.404 -0.7086 -0.3456 -0.5642
  470TIP3    H128333   4.124   6.854   5.433 -0.1177  0.2907 -2.5854
  470TIP3    H228334   3.992   6.919   5.398 -2.1766 -0.7860  2.3066
  471TIP3   OH228335   8.367   7.476   1.813  0.3471 -0.9166 -0.3025
  471TIP3    H128336   8.361   7.569   1.835 -1.0086 -1.2027  0.6896
  471TIP3    H228337   8.419   7.473   1.733 -1.3310  0.8857 -1.5388
  472TIP3   OH228338   3.733   5.736   6.081  0.2053  0.4559  0.0192
  472TIP3    H128339   3.762   5.749   5.991 -1.0606  1.3752 -0.2778
  472TIP3    H228340   3.760   5.647   6.102  0.2246  0.1061 -1.3945
  473TIP3   OH228341   2.169   7.484   1.126 -0.4727 -0.0189 -0.1196
  473TIP3    H128342   2.113   7.455   1.198 -1.4206  3.0753  0.5577
  473TIP3    H228343   2.228   7.547   1.167  1.7039 -1.1468 -1.3675
  474TIP3   OH228344   6.027   4.101   6.919  0.1768  0.2103  0.3930
  474TIP3    H128345   5.935   4.130   6.916  0.0141 -0.2542  0.7967
  474TIP3    H228346   6.031   4.041   6.993  0.6500 -0.3201 -0.0493
  475TIP3   OH228347   8.386   2.245   5.586 -0.0865  0.0934  0.3536
  475TIP3    H128348   8.432   2.163   5.603  0.7091  0.4932  0.2001
  475TIP3    H228349   8.300   2.234   5.626  0.2066 -0.6098  0.7973
  476TIP3   OH228350   8.313   3.265   6.174 -0.0906  0.3238 -0.1388
  476TIP3    H128351   8.229   3.263   6.218 -0.3598 -0.0808 -0.6638
  476TIP3    H228352   8.306   3.201   6.104  1.1873 -0.8811  0.7698
  477TIP3   OH228353   0.726   0.855   6.727  0.5607 -0.1813  0.0384
  477TIP3    H128354   0.764   0.795   6.790 -0.0904 -1.7857 -1.0284
  477TIP3    H228355   0.632   0.844   6.737  0.4428  0.2246 -0.5667
  478TIP3   OH228356   4.500   2.662   1.812  0.2959  0.4529 -0.4356
  478TIP3    H128357   4.497   2.698   1.900  0.9012 -0.7998  0.1320
  478TIP3    H228358   4.592   2.638   1.798  0.1825  0.4763 -1.3402
  479TIP3   OH228359   8.173   1.808   5.878 -0.4329 -0.4347 -0.7696
  479TIP3    H128360   8.253   1.799   5.827 -0.2114  0.0158 -0.5060
  479TIP3    H228361   8.182   1.892   5.923 -1.0336 -0.3992 -0.7073
  480TIP3   OH228362   7.778   1.966   5.705 -0.0848 -0.2863  0.1158
  480TIP3    H128363   7.714   1.989   5.638 -0.6903 -1.8501  0.1209
  480TIP3    H228364   7.860   1.956   5.656 -0.1192  0.3887 -0.0945
  481TIP3   OH228365   8.498   6.236   5.802 -0.3216  0.2818  0.1867
  481TIP3    H128366   8.511   6.156   5.853 -1.4224 -1.1315 -1.5893
  481TIP3    H228367   0.048   6.279   5.803  0.6120 -1.4567  0.3650
  482TIP3   OH228368   6.315   7.563   0.892 -0.6796  0.4541  0.3216
  482TIP3    H128369   6.403   7.577   0.856 -1.2986  0.6164 -1.2106
  482TIP3    H228370   6.327   7.493   0.956  0.5791  0.5092  0.1849
  483TIP3   OH228371   6.270   6.312   6.041 -0.5054 -0.3096  0.3200
  483TIP3    H128372   6.366   6.322   6.041 -0.6154  0.9592  0.7443
  483TIP3    H228373   6.242   6.356   5.960 -0.6951 -1.1806 -0.0949
  484TIP3   OH228374   1.673   7.287   0.052 -0.3203 -0.3818 -0.0932
  484TIP3    H128375   1.620   7.209   0.066  0.1509 -0.6916 -0.0159
  484TIP3    H228376   1.642   7.350   0.117 -1.6238 -0.0241 -1.0340
  485TIP3   OH228377   8.339   2.591   0.380 -0.1893 -0.3451 -0.3876
  485TIP3    H128378   8.302   2.563   0.297  0.5058 -1.0399 -0.4718
  485TIP3    H228379   8.430   2.560   0.378 -0.4782 -1.4105  1.1030
  486TIP3   OH228380   5.059   0.452   6.116 -0.0008 -0.1774 -0.0794
  486TIP3    H128381   5.070   0.391   6.189 -1.2397 -0.4212 -0.0862
  486TIP3    H228382   5.131   0.430   6.057  0.0292 -1.1083  0.2831
  487TIP3   OH228383   5.899   0.495   6.630 -0.0832 -0.0784 -0.3146
  487TIP3    H128384   5.831   0.428   6.625 -0.2344 -0.1515  1.7746
  487TIP3    H228385   5.857   0.575   6.597 -0.8992 -0.3338  0.0737
  488TIP3   OH228386   0.250   6.452   6.347  0.0373 -0.6159  0.1301
  488TIP3    H128387   0.338   6.437   6.382 -0.0686 -0.9111  0.2718
  488TIP3    H228388   0.250   6.545   6.323 -0.5191  0.1650  2.8050
  489TIP3   OH228389   3.072   2.123   5.603 -0.5847 -0.7354 -0.5235
  489TIP3    H128390   3.034   2.179   5.536 -1.5337 -0.5377  0.1600
  489TIP3    H228391   3.050   2.034   5.576 -0.9176 -0.6597 -0.5047
  490TIP3   OH228392   1.923   6.475   1.480  0.2885  0.3134  0.1246
  490TIP3    H128393   1.936   6.510   1.568 -1.8900  0.8148  0.3002
  490TIP3    H228394   1.839   6.511   1.452 -0.5903 -2.3353 -0.9192
  491TIP3   OH228395   4.727   3.271   6.322 -0.4174  0.2133  0.3169
  491TIP3    H128396   4.755   3.274   6.413 -1.7471  0.5267  0.7388
  491TIP3    H228397   4.775   3.342   6.279 -1.8071  1.9012  1.4031
  492TIP3   OH228398   3.431   1.272   0.868 -0.4680 -0.4293 -0.3120
  492TIP3    H128399   3.492   1.227   0.809 -0.2078 -0.4824 -0.0043
  492TIP3    H228400   3.417   1.209   0.939 -0.7649 -0.3571 -0.3082
  493TIP3   OH228401   2.525   1.317   6.159  0.9619  0.5025  0.7772
  493TIP3    H128402   2.549   1.279   6.244  3.6726  2.0610  0.8047
  493TIP3    H228403   2.601   1.302   6.103 -1.8481 -3.3985 -2.6282
  494TIP3   OH228404   7.152   6.187   5.456  0.2111 -0.9765  0.0263
  494TIP3    H128405   7.121   6.111   5.406 -1.0066 -1.5028  1.4808
  494TIP3    H228406   7.172   6.253   5.391 -3.0240 -0.9818 -1.1681
  495TIP3   OH228407   5.127   6.479   1.080  0.3878  0.2961  0.7964
  495TIP3    H128408   5.090   6.392   1.091 -0.4620  0.4195 -0.7148
  495TIP3    H228409   5.208   6.478   1.130 -0.4780 -0.7796  2.2378
  496TIP3   OH228410   8.057   6.306   0.994  0.3419  0.5315  0.1084
  496TIP3    H128411   8.073   6.219   0.958 -0.5718  0.7063 -0.7780
  496TIP3    H228412   8.143   6.347   0.998  0.7671 -0.3675  0.4418
  497TIP3   OH228413   4.053   8.051   0.164 -0.0084 -0.3507  0.1379
  497TIP3    H128414   4.026   7.993   0.093 -0.6777  0.6282 -0.4194
  497TIP3    H228415   4.128   8.100   0.129  0.1960 -0.4593  0.4104
  498TIP3   OH228416   8.153   5.241   1.257  0.1717 -0.2015  0.4909
  498TIP3    H128417   8.113   5.236   1.170  0.1646  1.0364  0.4123
  498TIP3    H228418   8.214   5.167   1.258  1.4576  0.7529 -1.2515
  499TIP3   OH228419   0.451   5.263   6.291 -0.8700 -0.0977  0.0916
  499TIP3    H128420   0.405   5.327   6.235  0.1056  0.6460  0.1194
  499TIP3    H228421   0.528   5.238   6.240 -2.1355 -2.6908 -0.7376
  500TIP3   OH228422   2.881   3.948   4.578  0.0772 -0.5796  0.0395
  500TIP3    H128423   2.808   3.959   4.640 -0.4129  0.8164 -0.7503
  500TIP3    H228424   2.859   4.004   4.504  1.5845 -0.7429 -0.5732
  501TIP3   OH228425   0.049   5.446   0.215 -0.1643 -0.6216  0.7888
  501TIP3    H128426   0.042   5.528   0.264  1.3907  0.6605 -0.9650
  501TIP3    H228427   0.092   5.386   0.276  0.3694  0.4534  1.5215
  502TIP3   OH228428   1.797   6.444   5.747 -0.3001  0.1333 -0.0920
  502TIP3    H128429   1.781   6.420   5.838 -0.3449 -0.7715 -0.3328
  502TIP3    H228430   1.761   6.372   5.696  2.6632 -1.0419 -0.7319
  503TIP3   OH228431   6.501   8.266   0.037  0.2837  0.2324  0.3795
  503TIP3    H128432   6.532   8.177   0.016  0.5746  0.2960  0.5340
  503TIP3    H228433   6.514   8.274   0.132 -3.8636 -1.1861  1.2643
  504TIP3   OH228434   3.460   5.984   1.002 -0.0893 -0.1144 -0.3351
  504TIP3    H128435   3.542   6.000   1.047  1.1981  0.6796 -2.7652
  504TIP3    H228436   3.439   5.893   1.022 -0.3086  0.5146  2.7620
  505TIP3   OH228437   7.460   0.807   5.859 -0.3835 -0.0930 -0.1980
  505TIP3    H128438   7.370   0.808   5.892  0.1121  0.2974  1.2124
  505TIP3    H228439   7.470   0.890   5.813 -0.0217  1.0160  1.7767
  506TIP3   OH228440   4.015   4.748   1.040  0.1521  0.2254 -0.2736
  506TIP3    H128441   4.071   4.688   1.090 -0.2679  2.2573  2.9537
  506TIP3    H228442   3.943   4.769   1.100 -1.8594  0.9103 -2.7597
  507TIP3   OH228443   7.693   0.010   0.948  0.3260  0.3817 -0.2246
  507TIP3    H128444   7.712   8.464   0.995  2.2044  1.9215  1.8578
  507TIP3    H228445   7.599   0.006   0.930 -0.4575 -0.5286  3.3931
  508TIP3   OH228446   1.458   1.104   0.276  0.8010  0.2079  0.0822
  508TIP3    H128447   1.481   1.014   0.251 -0.2262 -0.1864  0.5170
  508TIP3    H228448   1.428   1.144   0.194 -0.4735 -0.4171  0.2188
  509TIP3   OH228449   7.489   1.657   4.876  0.4938 -0.6243  0.4653
  509TIP3    H128450   7.459   1.619   4.794  1.5452 -1.5563  0.4838
  509TIP3    H228451   7.533   1.584   4.921  1.9841  0.4466  0.8051
  510TIP3   OH228452   7.673   1.038   6.932  0.4487 -0.2002 -0.6447
  510TIP3    H128453   7.579   1.031   6.915  0.8226 -0.9807 -2.6446
  510TIP3    H228454   7.679   1.086   7.015 -1.7006 -0.2316 -0.4206
  511TIP3   OH228455   0.701   2.598   0.542 -0.2208 -0.1477 -0.4333
  511TIP3    H128456   0.710   2.662   0.471 -2.7877 -1.0962 -1.7426
  511TIP3    H228457   0.673   2.517   0.498  0.5208 -1.4961  1.4419
  512TIP3   OH228458   4.797   6.774   0.420  0.3433 -0.5841 -0.0693
  512TIP3    H128459   4.825   6.865   0.433  0.9681 -0.9069  0.9896
  512TIP3    H228460   4.742   6.776   0.342 -1.4767  1.0777  1.1952
  513TIP3   OH228461   0.958   4.371   0.714 -0.5871  0.4776  0.2575
  513TIP3    H128462   1.017   4.301   0.686 -1.7820 -0.5643  0.2460
  513TIP3    H228463   0.986   4.447   0.663  2.0191  0.6098  1.6763
  514TIP3   OH228464   2.373   2.642   0.861 -0.2273  0.1454  0.0636
  514TIP3    H128465   2.413   2.708   0.918  0.2596  2.2738 -2.5731
  514TIP3    H228466   2.446   2.605   0.812 -0.7024 -1.3116  0.3901
  515TIP3   OH228467   6.162   2.667   0.630 -0.3020 -0.1561 -0.3814
  515TIP3    H128468   6.254   2.684   0.649 -0.3833 -1.8474  2.0239
  515TIP3    H228469   6.162   2.590   0.573 -0.1944 -1.3590  1.1746
  516TIP3   OH228470   1.952   5.435   2.019 -0.3818 -0.0535  0.2933
  516TIP3    H128471   2.037   5.475   2.037 -0.6370  1.5855 -1.7935
  516TIP3    H228472   1.891   5.480   2.077 -0.2671  0.8498 -0.2733
  517TIP3   OH228473   0.978   3.825   5.847  0.3287 -0.1262  0.1943
  517TIP3    H128474   1.063   3.798   5.880 -0.3750 -1.2289  1.2074
  517TIP3    H228475   0.975   3.793   5.757  0.7466 -0.6338  0.3593
  518TIP3   OH228476   5.226   4.654   0.932 -0.8674 -0.3558  0.6443
  518TIP3    H128477   5.236   4.749   0.920  1.1383 -0.5843  0.1172
  518TIP3    H228478   5.169   4.627   0.860  0.4736  0.1559 -0.6650
  519TIP3   OH228479   8.353   6.803   5.114 -0.1727  0.1115 -0.3310
  519TIP3    H128480   8.347   6.732   5.050 -2.5610  0.3673 -0.4990
  519TIP3    H228481   8.321   6.765   5.196  0.7102  0.3979  0.1632
  520TIP3   OH228482   0.328   7.987   5.922 -0.0227 -0.6096  0.4645
  520TIP3    H128483   0.407   8.037   5.940 -0.5874  0.3403  0.3996
  520TIP3    H228484   0.330   7.915   5.984  0.7923 -0.4862  0.5942
  521TIP3   OH228485   7.392   5.071   0.359  0.1253 -0.1255 -0.1517
  521TIP3    H128486   7.359   5.090   0.272 -0.9346  0.5141  0.3651
  521TIP3    H228487   7.342   5.129   0.417  2.5862  1.3906  0.6339
  522TIP3   OH228488   1.895   3.021   6.397  0.6695 -0.0704  0.0347
  522TIP3    H128489   1.981   3.045   6.362  0.4528 -0.3650 -0.7108
  522TIP3    H228490   1.889   2.926   6.383  0.5786 -0.1941  0.8755
  523TIP3   OH228491   2.207   3.191   0.804 -0.1745 -0.2025 -0.2675
  523TIP3    H128492   2.223   3.190   0.898  0.1771 -1.9528 -0.3091
  523TIP3    H228493   2.112   3.196   0.796 -0.3088 -1.5446  0.2337
  524TIP3   OH228494   2.853   0.642   0.584  0.0575 -0.1556  0.1189
  524TIP3    H128495   2.851   0.733   0.613  0.9534  0.0002 -0.2662
  524TIP3    H228496   2.761   0.615   0.583 -0.1725  0.5737  0.7563
  525TIP3   OH228497   3.493   7.105   0.877  0.1044 -0.3106 -0.0916
  525TIP3    H128498   3.509   7.176   0.814  1.2035  0.3093  0.8551
  525TIP3    H228499   3.496   7.148   0.962  1.9469 -1.6310  0.5779
  526TIP3   OH228500   0.249   3.869   5.738  0.0129  0.9472 -0.9545
  526TIP3    H128501   0.208   3.844   5.656 -0.8671  0.9752 -0.5353
  526TIP3    H228502   0.343   3.856   5.723 -0.3051 -2.3153 -0.8907
  527TIP3   OH228503   5.809   4.274   7.012  0.4255  0.5344  0.1747
  527TIP3    H128504   5.814   4.324   6.930  2.1324  1.1282  0.5968
  527TIP3    H228505   5.865   4.322   0.002  2.2437 -1.8893  0.5796
  528TIP3   OH228506   3.655   6.432   6.748  0.6690 -0.1400 -0.3375
  528TIP3    H128507   3.635   6.339   6.760  2.2638 -0.6165 -1.1178
  528TIP3    H228508   3.731   6.448   6.804  1.7852  0.1122 -1.8435
  529TIP3   OH228509   7.786   1.904   0.606  0.4747 -0.1350  0.0264
  529TIP3    H128510   7.741   1.827   0.641  0.2929 -0.6703 -1.3007
  529TIP3    H228511   7.751   1.913   0.517  0.9073  1.1546 -0.0344
  530TIP3   OH228512   4.978   4.033   6.935 -0.3846 -0.1058  0.2933
  530TIP3    H128513   4.983   4.041   7.030 -1.7820  0.0952  0.3703
  530TIP3    H228514   4.887   4.052   6.914 -0.4112 -1.4658 -0.9574
  531TIP3   OH228515   0.238   3.536   1.840 -0.0935 -0.5147 -0.0711
  531TIP3    H128516   0.207   3.626   1.837 -0.9397 -0.8085 -0.4657
  531TIP3    H228517   0.252   3.512   1.748  1.5863 -0.3078  0.1019
  532TIP3   OH228518   1.920   6.205   1.407 -0.6579  0.2953  0.0262
  532TIP3    H128519   1.930   6.297   1.431 -1.9166  0.6146 -0.6054
  532TIP3    H228520   1.882   6.207   1.320 -4.2374 -0.7720  1.4088
  533TIP3   OH228521   5.435   5.879   6.052  0.4852 -0.3129  1.0524
  533TIP3    H128522   5.359   5.894   5.995 -0.6549  1.8061  2.9969
  533TIP3    H228523   5.509   5.908   5.999 -0.3308  0.0209  0.0370
  534TIP3   OH228524   7.663   8.476   5.892  0.0922 -0.0343 -0.6804
  534TIP3    H128525   7.684   8.518   5.976 -0.3861 -0.5007 -0.3296
  534TIP3    H228526   7.698   0.002   5.826  1.8575 -0.3888 -0.1347
  535TIP3   OH228527   7.742   1.877   0.338  0.2282 -0.2038 -0.3104
  535TIP3    H128528   7.822   1.925   0.316  0.5231 -0.4260  0.2279
  535TIP3    H228529   7.764   1.786   0.319  0.5262 -0.4147  0.9211
  536TIP3   OH228530   6.807   0.738   1.184 -0.2622 -0.0644  0.0657
  536TIP3    H128531   6.856   0.712   1.106 -0.8939  0.5141 -0.5366
  536TIP3    H228532   6.827   0.831   1.196 -1.5630  0.3055 -0.4704
  537TIP3   OH228533   2.587   0.690   5.204  0.1609 -0.0556  0.5157
  537TIP3    H128534   2.641   0.626   5.157  0.4420  0.8852 -0.5012
  537TIP3    H228535   2.645   0.766   5.216 -0.5798  0.5370  0.4327
  538TIP3   OH228536   6.760   3.780   5.943  0.4114  0.3058 -0.0660
  538TIP3    H128537   6.818   3.758   6.016 -0.2166  0.2874  0.4396
  538TIP3    H228538   6.776   3.873   5.927  0.4029  0.3645  0.2447
  539TIP3   OH228539   2.385   6.442   6.267 -0.5542  0.2517 -0.3435
  539TIP3    H128540   2.377   6.362   6.215 -3.0016 -1.1570  1.9295
  539TIP3    H228541   2.427   6.414   6.348 -0.0238  1.6121 -0.1232
  540TIP3   OH228542   3.732   7.221   0.265  0.5187 -0.3335 -0.7165
  540TIP3    H128543   3.676   7.295   0.289  0.1512 -0.5386 -0.9375
  540TIP3    H228544   3.808   7.229   0.323 -0.9561 -1.6124  1.5592
  541TIP3   OH228545   2.112   6.561   0.168 -0.0247  0.7768 -0.4006
  541TIP3    H128546   2.137   6.564   0.260  1.3081 -0.6307 -0.6821
  541TIP3    H228547   2.050   6.488   0.162  1.6865 -0.6953 -0.9714
  542TIP3   OH228548   3.231   7.121   6.675 -0.1966 -0.8654  0.0156
  542TIP3    H128549   3.298   7.099   6.740  0.5715 -0.9127 -0.7671
  542TIP3    H228550   3.168   7.049   6.680 -0.7133 -0.3407  1.4259
  543TIP3   OH228551   7.915   4.121   0.718  0.6303  0.0862  0.1379
  543TIP3    H128552   7.825   4.099   0.743  1.0645  0.2705  2.0033
  543TIP3    H228553   7.956   4.036   0.702  0.5962 -0.1087  1.0497
  544TIP3   OH228554   4.286   6.720   1.250 -0.8971 -0.2295 -0.7301
  544TIP3    H128555   4.212   6.738   1.308  0.3691  1.5563  0.4327
  544TIP3    H228556   4.320   6.636   1.280 -0.7181  0.3120  0.6360
  545TIP3   OH228557   5.966   6.008   5.901  0.3600 -0.4224  0.4352
  545TIP3    H128558   5.934   6.094   5.929  0.6038 -0.4917  0.9539
  545TIP3    H228559   6.058   6.024   5.877  0.4187 -0.5429  0.5752
  546TIP3   OH228560   2.046   5.826   0.909  0.5714 -0.0182  0.0722
  546TIP3    H128561   2.000   5.898   0.953  1.3467  1.1064 -0.8826
  546TIP3    H228562   2.039   5.753   0.970  0.2983  1.0390  1.3790
  547TIP3   OH228563   8.070   4.949   1.592 -0.0237 -0.7288  0.2468
  547TIP3    H128564   7.991   5.003   1.593  2.0518  2.6492  2.1929
  547TIP3    H228565   8.142   5.012   1.594  2.6859 -3.5976  2.0671
  548TIP3   OH228566   1.985   5.930   5.809 -0.5835 -0.4857 -0.1660
  548TIP3    H128567   2.012   5.953   5.720  0.5473 -1.2262 -0.0354
  548TIP3    H228568   1.969   6.015   5.851  0.2641 -0.0629 -0.6618
  549TIP3   OH228569   2.834   5.717   6.391 -0.1852  0.2798 -0.0297
  549TIP3    H128570   2.800   5.628   6.399  0.9935 -0.1878 -0.0863
  549TIP3    H228571   2.813   5.758   6.475  1.0935 -0.7078  0.8043
  550TIP3   OH228572   6.868   0.567   6.560  0.2888  0.4010  0.1047
  550TIP3    H128573   6.792   0.530   6.604 -0.9659 -0.4948 -2.6038
  550TIP3    H228574   6.927   0.493   6.546 -0.4878  0.1136 -1.9094
  551TIP3   OH228575   7.496   6.135   4.908  0.4740 -0.3383  0.2565
  551TIP3    H128576   7.476   6.041   4.909 -0.5552 -0.1630 -1.2016
  551TIP3    H228577   7.586   6.139   4.876  0.1389 -0.7865 -0.7694
  552TIP3   OH228578   4.559   6.715   1.791 -0.6102 -0.3359  0.5622
  552TIP3    H128579   4.608   6.728   1.872  1.3137 -0.3273 -0.5406
  552TIP3    H228580   4.580   6.626   1.764  0.0009  0.1724 -0.6962
  553TIP3   OH228581   4.846   7.617   5.117 -0.2545 -0.1571  0.0010
  553TIP3    H128582   4.935   7.635   5.088 -0.1433 -1.4753 -0.5620
  553TIP3    H228583   4.814   7.551   5.055 -1.6694  0.3818  0.1184
  554TIP3   OH228584   4.993   7.228   0.786  0.2062  0.3198  0.0836
  554TIP3    H128585   4.934   7.153   0.778 -0.4816  0.4146  2.9143
  554TIP3    H228586   4.943   7.301   0.749 -1.2555  0.2341  1.7007
  555TIP3   OH228587   3.542   3.770   5.806  0.6299  0.0193  0.0838
  555TIP3    H128588   3.559   3.679   5.781  1.1178  0.1295  0.0103
  555TIP3    H228589   3.532   3.766   5.901  1.5398  0.0154  0.1907
  556TIP3   OH228590   0.059   1.641   7.048  0.3342 -0.2776  0.3248
  556TIP3    H128591   0.118   1.583   0.025 -1.4884 -0.7379  2.1743
  556TIP3    H228592   8.523   1.658   0.039 -2.2641 -0.9957 -2.2450
  557TIP3   OH228593   7.511   0.962   6.429 -0.4381 -0.8087 -0.8007
  557TIP3    H128594   7.567   0.960   6.507  0.0940 -0.2174 -1.1622
  557TIP3    H228595   7.428   0.923   6.458 -1.3629  2.1657  0.9441
  558TIP3   OH228596   1.624   4.484   6.152 -0.3494  0.1615  0.2986
  558TIP3    H128597   1.642   4.574   6.180  2.0561  0.5373 -2.0621
  558TIP3    H228598   1.532   4.486   6.125 -0.4516  1.8114  0.6258
  559TIP3   OH228599   0.731   1.914   5.160  0.7271 -0.2547  0.1914
  559TIP3    H128600   0.784   1.977   5.209  1.1163 -0.1265 -0.3769
  559TIP3    H228601   0.664   1.967   5.117 -1.3569 -0.6405  2.7031
  560TIP3   OH228602   2.886   7.576   1.219 -0.4041 -0.3697  0.1667
  560TIP3    H128603   2.953   7.623   1.269 -0.9754 -0.1960  0.7735
  560TIP3    H228604   2.807   7.583   1.272 -0.5659 -1.7998  0.1438
  561TIP3   OH228605   7.404   1.469   0.957  0.0770  0.0673  0.5489
  561TIP3    H128606   7.497   1.467   0.934  0.0650 -1.2378  0.5308
  561TIP3    H228607   7.403   1.456   1.052 -0.0998 -0.2830  0.5000
  562TIP3   OH228608   5.617   6.104   1.612 -0.4151  0.0021  0.3605
  562TIP3    H128609   5.580   6.068   1.693 -1.2867  0.2020  0.0633
  562TIP3    H228610   5.706   6.069   1.609 -0.0357  0.7268  1.8782
  563TIP3   OH228611   0.195   5.618   1.121 -0.1051 -0.1298  0.2040
  563TIP3    H128612   0.279   5.651   1.153  0.2833 -1.9883  1.2371
  563TIP3    H228613   0.201   5.625   1.026  1.4704 -0.7647  0.2381
  564TIP3   OH228614   4.198   1.673   0.390  0.0549 -0.4690  0.4673
  564TIP3    H128615   4.145   1.631   0.457 -0.2470 -1.4646 -0.3646
  564TIP3    H228616   4.180   1.623   0.310  0.4667  0.6351 -0.3377
  565TIP3   OH228617   4.320   7.699   6.945  0.0570 -0.1388 -0.1010
  565TIP3    H128618   4.310   7.792   6.923 -1.3323 -0.1456  0.4350
  565TIP3    H228619   4.414   7.688   6.956  0.2536  1.1923 -0.2267
  566TIP3   OH228620   2.554   1.348   6.714  0.1435  0.4025 -0.2347
  566TIP3    H128621   2.605   1.277   6.674  1.3980  1.1362  0.0094
  566TIP3    H228622   2.600   1.369   6.795 -0.2469  1.4393 -0.2591
  567TIP3   OH228623   7.642   2.140   7.031 -0.2401  0.4476  0.0010
  567TIP3    H128624   7.714   2.081   7.007  0.9625  1.4436  0.9954
  567TIP3    H228625   7.656   2.218   6.979  0.7337  1.5011  1.7308
  568TIP3   OH228626   2.793   3.306   0.600 -0.0425  0.0468 -0.6632
  568TIP3    H128627   2.823   3.391   0.633  0.4827 -0.4598  0.2083
  568TIP3    H228628   2.711   3.325   0.555 -0.0435  0.9820 -0.2849
  569TIP3   OH228629   4.853   0.804   0.574  0.4463  0.3165  0.5092
  569TIP3    H128630   4.914   0.738   0.539 -0.1609 -0.0966  0.2041
  569TIP3    H228631   4.894   0.834   0.654  1.2775  0.3795  0.0706
  570TIP3   OH228632   1.479   0.177   6.413 -0.0723  0.4111 -0.0342
  570TIP3    H128633   1.418   0.172   6.486  0.7870 -1.1772  0.6282
  570TIP3    H228634   1.430   0.221   6.343 -1.6843 -0.1079  0.7393
  571TIP3   OH228635   4.786   7.845   4.891 -0.3713  0.4284  0.0242
  571TIP3    H128636   4.726   7.789   4.843  1.0295 -2.6796  1.6327
  571TIP3    H228637   4.744   7.859   4.976 -0.6098  1.7117 -0.2832
  572TIP3   OH228638   0.480   0.396   6.466 -0.0950  0.4210 -0.5835
  572TIP3    H128639   0.404   0.348   6.500 -0.7900  2.6646  1.2579
  572TIP3    H228640   0.526   0.426   6.544  1.0913  1.5527 -1.6763
  573TIP3   OH228641   2.246   8.351   6.747  0.5445 -0.0305  0.0988
  573TIP3    H128642   2.253   8.442   6.777  2.1099 -0.1848  0.2496
  573TIP3    H228643   2.152   8.332   6.752  0.1916  1.5558  0.1124
  574TIP3   OH228644   7.216   3.939   6.366  0.4377  0.4306 -0.5918
  574TIP3    H128645   7.288   3.962   6.307  1.9750  1.9655  1.7044
  574TIP3    H228646   7.156   4.014   6.361  1.2791  1.2396  0.7366
  575TIP3   OH228647   1.968   6.390   5.466 -0.1615 -0.0538 -0.5631
  575TIP3    H128648   1.999   6.434   5.545 -0.2877 -1.9444  0.5959
  575TIP3    H228649   2.047   6.358   5.422 -0.0244  1.7265 -1.7184
  576TIP3   OH228650   7.506   5.665   1.456  0.5737 -0.2363 -0.3214
  576TIP3    H128651   7.440   5.654   1.525 -1.8492  1.2242 -2.2136
  576TIP3    H228652   7.530   5.576   1.431 -1.2136 -0.8515  0.0001
  577TIP3   OH228653   4.177   2.647   0.031 -0.6642  0.9169 -0.7651
  577TIP3    H128654   4.184   2.700   7.022  0.5564  1.4250 -0.3401
  577TIP3    H228655   4.267   2.621   0.051 -1.0875 -0.1609 -0.1823
  578TIP3   OH228656   6.137   4.475   5.953  0.2192  0.4998 -0.7187
  578TIP3    H128657   6.148   4.478   5.858 -0.6196  0.3424 -0.8313
  578TIP3    H228658   6.125   4.382   5.973  3.9781  0.0272  0.0175
  579TIP3   OH228659   3.456   0.515   0.401 -0.5222  0.2826 -0.4196
  579TIP3    H128660   3.374   0.466   0.396  0.5185 -1.6323  0.1236
  579TIP3    H228661   3.460   0.545   0.492 -0.1832 -0.5206 -0.1517
  580TIP3   OH228662   3.808   0.887   6.364  0.4248  0.6156 -0.6761
  580TIP3    H128663   3.889   0.909   6.409  0.2161 -0.7211  0.4369
  580TIP3    H228664   3.819   0.795   6.339 -0.4046  0.6666 -1.2994
  581TIP3   OH228665   3.801   6.721   0.406  0.2880 -0.1786 -0.6676
  581TIP3    H128666   3.874   6.772   0.444 -0.3424  0.4679 -0.2949
  581TIP3    H228667   3.723   6.758   0.447 -0.1044 -2.8614  1.2897
  582TIP3   OH228668   3.161   6.614   5.239 -0.1129  0.4719 -0.0807
  582TIP3    H128669   3.179   6.686   5.178 -1.9817  1.2091  0.1819
  582TIP3    H228670   3.082   6.573   5.205 -0.6641  0.3154  1.2984
  583TIP3   OH228671   0.728   5.912   6.014  0.2336  0.4621 -0.2717
  583TIP3    H128672   0.667   5.846   6.045 -0.5150  2.0210  1.8026
  583TIP3    H228673   0.768   5.948   6.094  1.7571  1.4628 -1.4109
  584TIP3   OH228674   1.917   3.593   1.321  0.5987  0.1848 -1.1955
  584TIP3    H128675   1.892   3.630   1.236 -0.7474 -0.3481 -1.0480
  584TIP3    H228676   1.989   3.533   1.300 -0.8096 -1.2010 -2.2224
  585TIP3   OH228677   1.158   6.832   1.787  0.2001  0.6908  0.3947
  585TIP3    H128678   1.089   6.765   1.780  0.7855  0.2532 -2.1106
  585TIP3    H228679   1.114   6.914   1.766  0.0561  0.7139  0.7700
  586TIP3   OH228680   6.802   2.109   0.529 -0.0749  0.9664 -0.1990
  586TIP3    H128681   6.869   2.041   0.519 -1.5078 -0.8230  1.6117
  586TIP3    H228682   6.728   2.078   0.477  0.6602  3.3743 -2.9448
  587TIP3   OH228683   0.641   4.890   1.305  0.1328 -0.1627  0.1323
  587TIP3    H128684   0.552   4.913   1.331 -0.0592 -0.2280 -0.4711
  587TIP3    H228685   0.636   4.871   1.212  0.5615 -1.2275  0.3016
  588TIP3   OH228686   0.001   6.823   1.602 -0.3989  0.2362 -0.5979
  588TIP3    H128687   8.454   6.777   1.618  1.2838 -2.5859  0.8748
  588TIP3    H228688   0.015   6.876   1.681 -1.4303  1.9222 -1.4882
  589TIP3   OH228689   3.489   0.717   6.043  0.5336  0.2573 -0.6440
  589TIP3    H128690   3.513   0.790   6.100  0.9398  0.1059 -0.6184
  589TIP3    H228691   3.521   0.742   5.956  2.5789 -0.7821 -0.2624
  590TIP3   OH228692   2.487   7.910   6.141  0.4177 -0.2722 -0.0339
  590TIP3    H128693   2.486   7.920   6.237 -2.5627  2.6605 -0.2087
  590TIP3    H228694   2.569   7.952   6.114  0.9360 -0.4785  1.1481
  591TIP3   OH228695   7.577   7.822   0.471  0.5060 -0.2059  0.4503
  591TIP3    H128696   7.559   7.915   0.476 -2.3483 -0.5600 -1.0959
  591TIP3    H228697   7.510   7.781   0.525 -1.9920 -1.5157 -3.2671
  592TIP3   OH228698   3.064   5.415   0.730  0.0491  0.0355  0.3927
  592TIP3    H128699   3.131   5.479   0.708  0.0956  0.1156  0.7723
  592TIP3    H228700   3.072   5.401   0.824 -0.7761  0.3899  0.5275
  593TIP3   OH228701   7.249   2.885   5.985 -0.7688 -0.3528  0.3778
  593TIP3    H128702   7.252   2.851   6.074  2.3228 -0.8229  0.2125
  593TIP3    H228703   7.280   2.975   5.992 -2.0580  0.1442 -0.0628
  594TIP3   OH228704   3.386   6.259   0.645  0.0922  0.3418 -0.0320
  594TIP3    H128705   3.391   6.187   0.583 -4.0661 -2.3436  2.3061
  594TIP3    H228706   3.446   6.235   0.715  1.1488  0.9236 -0.7044
  595TIP3   OH228707   0.836   1.104   6.288 -0.2144  0.2700  0.7815
  595TIP3    H128708   0.864   1.191   6.315  1.6906 -0.0236 -0.1196
  595TIP3    H228709   0.847   1.050   6.367 -0.5739  0.6512  1.0987
  596TIP3   OH228710   7.478   4.959   1.397  0.0990 -0.1972 -0.3100
  596TIP3    H128711   7.548   4.997   1.344 -0.4125  0.3090 -0.6390
  596TIP3    H228712   7.428   5.035   1.427  1.1586 -0.3437  2.0305
  597TIP3   OH228713   6.963   2.543   0.840 -0.4752  0.5555  0.3044
  597TIP3    H128714   6.970   2.556   0.745 -1.0872  0.8381  0.2925
  597TIP3    H228715   6.935   2.452   0.850  0.1614  0.3466  0.2415
  598TIP3   OH228716   2.741   0.528   0.090  0.3714  0.1704  0.2171
  598TIP3    H128717   2.719   0.576   0.170  0.9917  1.0090 -0.0924
  598TIP3    H228718   2.831   0.555   0.070  0.1092  0.2420 -0.9523
  599TIP3   OH228719   7.525   5.160   6.783 -0.4261  0.1972  0.2088
  599TIP3    H128720   7.520   5.191   6.873  1.1317 -0.8183  0.6915
  599TIP3    H228721   7.617   5.172   6.758 -0.7562  0.1417 -1.1313
  600TIP3   OH228722   5.496   4.748   7.011  0.0202  0.6930  0.1456
  600TIP3    H128723   5.577   4.789   7.042  1.3170 -0.7698 -1.1279
  600TIP3    H228724   5.508   4.740   6.916 -1.2409 -0.3547  0.0509
  601TIP3   OH228725   6.779   4.509   6.792 -0.1634  0.4329  0.0213
  601TIP3    H128726   6.776   4.576   6.723  0.0563  0.4851  0.0627
  601TIP3    H228727   6.816   4.554   6.868 -0.8225  0.4977  0.3155
  602TIP3   OH228728   2.514   7.573   5.416 -0.2207 -0.0393  0.1421
  602TIP3    H128729   2.490   7.485   5.446 -1.9738  0.2216 -0.3566
  602TIP3    H228730   2.504   7.569   5.321  0.3365  0.5223  0.0565
  603TIP3   OH228731   6.024   1.651   0.146  0.1383  0.3023  0.1868
  603TIP3    H128732   6.030   1.601   0.228 -1.5119 -0.3254 -0.0459
  603TIP3    H228733   5.932   1.674   0.139  0.4509  1.2640 -0.9772
  604TIP3   OH228734   4.658   7.051   5.160 -0.4864  0.4975 -0.6289
  604TIP3    H128735   4.574   7.009   5.177  0.7755 -1.5257  1.2317
  604TIP3    H228736   4.719   7.006   5.219  1.8096  2.2169 -1.5484
  605TIP3   OH228737   8.320   3.102   5.965 -0.9210  0.0330 -0.3444
  605TIP3    H128738   8.412   3.113   5.940 -1.0038  2.2333  0.1417
  605TIP3    H228739   8.282   3.048   5.895  0.4759  0.0160 -1.1166
  606TIP3   OH228740   1.979   1.169   6.151 -0.3006 -0.4745  0.0623
  606TIP3    H128741   2.067   1.200   6.171  0.5903 -2.0284 -1.2497
  606TIP3    H228742   1.922   1.243   6.172  1.4763  1.1980 -0.7372
  607TIP3   OH228743   5.501   4.899   0.456  0.1539 -0.4872  0.5089
  607TIP3    H128744   5.494   4.984   0.500  0.8246 -0.7047  1.0564
  607TIP3    H228745   5.513   4.921   0.364 -1.3827 -0.0212  0.3899
  608TIP3   OH228746   1.317   0.553   0.285  0.2377  0.1334 -0.2723
  608TIP3    H128747   1.254   0.492   0.324 -0.1337  0.4790 -0.3262
  608TIP3    H228748   1.315   0.533   0.192  0.2382  0.1154 -0.2685
  609TIP3   OH228749   1.944   0.834   5.742  0.4061  0.2870 -0.1328
  609TIP3    H128750   1.947   0.845   5.647  0.0604  0.1511 -0.1584
  609TIP3    H228751   2.011   0.894   5.775  0.8511 -0.0058 -0.4920
  610TIP3   OH228752   5.582   4.104   1.010 -0.0383  0.0534 -0.3881
  610TIP3    H128753   5.614   4.150   1.088 -1.1415  1.7656 -0.8913
  610TIP3    H228754   5.652   4.116   0.945  1.5467 -2.6168  0.6793
  611TIP3   OH228755   5.269   0.889   4.928  0.2933 -0.3134  0.3966
  611TIP3    H128756   5.201   0.933   4.876  0.2953  0.4289  1.0010
  611TIP3    H228757   5.308   0.960   4.980  2.2896 -0.5020 -0.7355
  612TIP3   OH228758   4.348   0.260   6.575  0.2590  0.6974  0.2611
  612TIP3    H128759   4.397   0.180   6.593 -0.2195  0.6429  1.4026
  612TIP3    H228760   4.384   0.324   6.636  1.0159  1.5228 -1.0196
  613TIP3   OH228761   2.671   3.713   6.950  0.2672 -0.4424 -0.2754
  613TIP3    H128762   2.620   3.771   6.893  2.2695  2.0558  0.2431
  613TIP3    H228763   2.736   3.674   6.891 -0.2068 -1.0817 -0.3809
  614TIP3   OH228764   2.308   0.722   5.157  0.5717 -0.4285 -0.3511
  614TIP3    H128765   2.392   0.730   5.112  0.2199 -0.8420 -1.1110
  614TIP3    H228766   2.303   0.630   5.181  1.1650 -0.0426  1.4009
  615TIP3   OH228767   1.254   0.598   1.114 -0.0232  0.3185  0.2738
  615TIP3    H128768   1.195   0.524   1.102  2.6610 -1.8182 -0.6907
  615TIP3    H228769   1.283   0.592   1.205 -1.1116  1.2945  0.7117
  616TIP3   OH228770   1.001   4.509   0.040  0.3975 -0.2118 -0.1269
  616TIP3    H128771   0.938   4.473   7.049  1.9171  0.1396 -1.9420
  616TIP3    H228772   1.079   4.455   0.030  1.2065  0.8209  0.3482
  617TIP3   OH228773   7.072   4.000   0.340 -0.1271 -0.7056  0.0276
  617TIP3    H128774   7.152   3.960   0.308 -0.5487 -2.7543  1.3154
  617TIP3    H228775   7.002   3.944   0.306 -0.8995  0.0270  0.3692
  618TIP3   OH228776   3.446   4.433   5.975  0.0746 -0.0073 -0.7512
  618TIP3    H128777   3.380   4.468   6.034  0.5280  2.1350 -1.4351
  618TIP3    H228778   3.410   4.447   5.888  1.2647  0.9091 -1.1175
  619TIP3   OH228779   7.985   8.421   0.274  0.0072  0.0669 -0.6495
  619TIP3    H128780   8.070   8.443   0.238  0.3122  0.6229  0.3784
  619TIP3    H228781   7.928   8.413   0.197  1.2758 -1.7668 -1.4692
  620TIP3   OH228782   8.035   6.165   6.624  0.6082  0.0645 -0.3388
  620TIP3    H128783   8.100   6.116   6.574  0.9950  1.3950 -1.1711
  620TIP3    H228784   7.980   6.097   6.663  1.0368 -1.0358 -1.5594
  621TIP3   OH228785   3.315   5.197   0.809  0.0001 -0.5153  1.0768
  621TIP3    H128786   3.281   5.223   0.723  0.7642 -1.2060  0.5443
  621TIP3    H228787   3.297   5.271   0.866  0.0593  0.2255  0.1578
  622TIP3   OH228788   2.227   7.851   0.681 -0.7874 -1.2052  0.0042
  622TIP3    H128789   2.179   7.934   0.685  0.1791 -0.6380  0.1328
  622TIP3    H228790   2.185   7.803   0.609 -0.7302 -0.1977 -0.7301
  623TIP3   OH228791   4.775   3.685   5.477 -0.1901  0.0669  0.1483
  623TIP3    H128792   4.779   3.721   5.389  0.3306 -0.5119 -0.0690
  623TIP3    H228793   4.744   3.758   5.531 -0.2376  0.5058 -0.4616
  624TIP3   OH228794   6.998   8.473   1.427  0.6363 -0.3014  0.9199
  624TIP3    H128795   6.976   8.387   1.462  0.6503 -0.4235  0.6330
  624TIP3    H228796   7.048   8.516   1.497  0.2057 -0.3355  1.2521
  625TIP3   OH228797   4.560   2.101   5.935 -0.4083  0.2951  0.0703
  625TIP3    H128798   4.500   2.080   5.864  0.0427 -0.8878  0.0291
  625TIP3    H228799   4.647   2.093   5.897 -0.0974 -1.8225  1.0830
  626TIP3   OH228800   7.116   7.433   5.506 -0.6589  0.6992  0.1578
  626TIP3    H128801   7.211   7.423   5.513 -0.3856  0.2696 -2.8663
  626TIP3    H228802   7.081   7.379   5.577  1.3174  0.1599  0.7870
  627TIP3   OH228803   5.778   3.113   6.611  0.0835 -0.2312 -0.0085
  627TIP3    H128804   5.816   3.169   6.544  0.4463 -0.2477  0.1840
  627TIP3    H228805   5.708   3.166   6.649 -0.5325 -0.4446 -0.8085
  628TIP3   OH228806   6.373   6.606   0.656  0.1777 -0.0078 -0.2937
  628TIP3    H128807   6.368   6.586   0.749  1.6325  1.6158  0.1858
  628TIP3    H228808   6.307   6.675   0.642 -1.0242 -1.2118 -0.8017
  629TIP3   OH228809   7.529   6.491   0.311 -0.1620  0.0437  0.2963
  629TIP3    H128810   7.524   6.579   0.346 -0.4443  0.4841 -0.7872
  629TIP3    H228811   7.619   6.482   0.279 -0.8061  0.9677 -2.0257
  630TIP3   OH228812   5.286   4.695   0.123  0.9449 -0.0902  0.1756
  630TIP3    H128813   5.271   4.601   0.136  0.6598 -0.0427  0.1975
  630TIP3    H228814   5.364   4.699   0.066  0.2580 -0.3769 -0.8165
  631TIP3   OH228815   6.712   1.128   6.873  0.3573 -0.1109  0.2985
  631TIP3    H128816   6.680   1.183   6.801 -3.1036 -0.9632  1.0093
  631TIP3    H228817   6.712   1.039   6.837 -1.3528 -0.5366  1.2313
  632TIP3   OH228818   6.623   7.756   6.046  0.0701 -0.3868 -0.4125
  632TIP3    H128819   6.703   7.784   6.091 -1.3326  0.0540  2.0094
  632TIP3    H228820   6.638   7.776   5.954  2.1841  1.0183  0.1823
  633TIP3   OH228821   5.057   4.100   5.907  0.8054  0.0888  0.2652
  633TIP3    H128822   4.981   4.154   5.930 -0.5343 -1.7599  0.3861
  633TIP3    H228823   5.126   4.164   5.888 -0.8396  1.8514 -0.1623
  634TIP3   OH228824   3.784   1.544   0.027  0.0723 -0.3007 -0.2010
  634TIP3    H128825   3.692   1.539   0.051 -0.1111  0.2784 -0.7411
  634TIP3    H228826   3.819   1.457   0.045 -1.2187 -1.3901 -2.4750
  635TIP3   OH228827   0.642   1.546   0.700 -0.0231 -0.0167  0.5554
  635TIP3    H128828   0.556   1.506   0.718 -2.8328  4.3840 -1.2575
  635TIP3    H228829   0.666   1.514   0.613 -0.7125 -0.0154  0.3566
  636TIP3   OH228830   7.925   2.368   0.824 -0.0483  0.2019 -0.4478
  636TIP3    H128831   8.006   2.346   0.870  0.0468  0.9103 -0.2646
  636TIP3    H228832   7.912   2.296   0.762  1.1755  0.4874 -1.0706
  637TIP3   OH228833   0.412   5.478   5.631  0.0215  0.0414  0.2976
  637TIP3    H128834   0.384   5.461   5.721 -2.1406  0.9605 -0.1347
  637TIP3    H228835   0.331   5.479   5.581  1.1299  0.1482 -1.5796
  638TIP3   OH228836   2.686   0.573   0.949 -0.6197 -0.4777 -0.5109
  638TIP3    H128837   2.720   0.518   1.019  1.6668  1.9195  0.4367
  638TIP3    H228838   2.661   0.512   0.880 -0.4597 -2.7773  1.3423
  639TIP3   OH228839   5.080   0.383   5.072  0.4558  0.1583  0.2560
  639TIP3    H128840   5.135   0.459   5.053  0.1703  0.4079  0.4200
  639TIP3    H228841   5.022   0.412   5.143  1.8365 -0.8902  1.9224
  640TIP3   OH228842   6.092   6.607   6.269  0.4692 -0.1217 -0.8065
  640TIP3    H128843   5.999   6.612   6.287  0.6330 -2.3912  1.2125
  640TIP3    H228844   6.101   6.640   6.179 -2.2363  0.2283 -1.0247
  641TIP3   OH228845   5.964   3.292   6.480  0.5346 -0.2361 -0.0537
  641TIP3    H128846   6.006   3.374   6.505  2.8572 -0.9952 -1.1382
  641TIP3    H228847   5.949   3.300   6.386  1.1541 -1.1612 -0.2485
  642TIP3   OH228848   1.722   2.485   5.680 -0.3501  0.9675  0.5480
  642TIP3    H128849   1.707   2.499   5.586  1.9164 -2.0838 -0.4472
  642TIP3    H228850   1.649   2.429   5.707 -0.1680  0.5198  0.1474
  643TIP3   OH228851   6.765   2.339   0.703 -0.0262 -0.8362  0.3456
  643TIP3    H128852   6.734   2.416   0.656 -0.5511 -1.2244  0.0413
  643TIP3    H228853   6.740   2.265   0.647 -2.2669 -1.4618  2.0308
  644TIP3   OH228854   1.518   0.447   6.628  0.5856 -0.3108 -0.1347
  644TIP3    H128855   1.576   0.523   6.634 -0.1539  0.2639 -0.0714
  644TIP3    H228856   1.553   0.395   6.556 -1.0137  1.9921 -2.7948
  645TIP3   OH228857   5.186   0.997   6.959 -0.1268 -0.3539 -0.0920
  645TIP3    H128858   5.225   0.950   7.032  0.3929 -0.2565 -0.3024
  645TIP3    H228859   5.161   1.082   6.995 -0.4192 -0.5235  0.1138
  646TIP3   OH228860   6.404   1.791   0.480  0.6526  0.4014 -0.6072
  646TIP3    H128861   6.449   1.870   0.451  0.8703  0.4256 -0.2068
  646TIP3    H228862   6.439   1.774   0.568 -1.3154  1.3358  0.3954
  647TIP3   OH228863   3.854   2.189   0.646 -0.2406 -0.0307  0.6142
  647TIP3    H128864   3.822   2.102   0.670 -0.9191 -0.4351 -1.5672
  647TIP3    H228865   3.804   2.249   0.702 -1.6913 -0.9046  0.2993
  648TIP3   OH228866   2.835   4.254   4.818 -0.1379 -0.6681  0.3384
  648TIP3    H128867   2.838   4.160   4.803 -2.2777 -0.8161  0.4875
  648TIP3    H228868   2.869   4.293   4.738 -0.5438 -1.5644 -0.2759
  649TIP3   OH228869   7.991   4.172   5.604  0.2589 -0.2492 -0.7485
  649TIP3    H128870   8.031   4.146   5.521  0.1901  1.1624 -1.2581
  649TIP3    H228871   7.957   4.091   5.641 -2.3232 -0.5698 -3.5084
  650TIP3   OH228872   7.696   8.357   0.620  0.3143 -0.6653 -0.5927
  650TIP3    H128873   7.687   8.268   0.655 -1.4475 -0.4980 -0.5408
  650TIP3    H228874   7.666   8.350   0.530 -0.5616  0.0172 -0.3595
  651TIP3   OH228875   1.051   0.957   0.589 -0.0360  0.0629 -0.3608
  651TIP3    H128876   1.066   0.915   0.674 -0.8771  1.3076  0.4507
  651TIP3    H228877   1.067   0.889   0.524 -2.3136 -1.8387  0.9147
  652TIP3   OH228878   1.329   2.615   5.289  0.8402  0.2068 -0.0339
  652TIP3    H128879   1.320   2.520   5.288  0.8488 -0.2869  6.3748
  652TIP3    H228880   1.240   2.648   5.273  0.0030 -1.1797  1.5195
  653TIP3   OH228881   3.622   3.514   6.973 -0.0294 -1.2646  0.5162
  653TIP3    H128882   3.705   3.475   7.000  0.3052 -0.3387  0.8434
  653TIP3    H228883   3.560   3.440   6.972  0.3877 -1.6582  1.9585
  654TIP3   OH228884   5.295   8.365   5.248 -0.1207 -0.3536  0.0614
  654TIP3    H128885   5.344   8.328   5.175  1.7552  1.0931  0.5042
  654TIP3    H228886   5.209   8.385   5.211  0.9614  0.9102 -1.9883
  655TIP3   OH228887   1.212   5.935   5.940 -0.0826  0.7597 -0.3045
  655TIP3    H128888   1.234   5.967   6.028 -0.4464 -1.9370  0.9048
  655TIP3    H228889   1.129   5.888   5.953  0.6089 -0.9591 -1.7348
  656TIP3   OH228890   6.661   7.724   1.303  0.4917  0.0534  0.4967
  656TIP3    H128891   6.698   7.657   1.361  1.3570 -0.5082 -0.6838
  656TIP3    H228892   6.568   7.704   1.301  0.6895 -0.9002  0.4377
  657TIP3   OH228893   2.160   2.548   0.719 -0.1553  0.8830 -0.7954
  657TIP3    H128894   2.175   2.590   0.634  0.2977 -0.0640 -1.2027
  657TIP3    H228895   2.239   2.568   0.770 -0.2902  1.1911 -0.7067
  658TIP3   OH228896   2.050   1.922   1.417 -0.1259 -0.4208 -0.0625
  658TIP3    H128897   2.111   1.849   1.423 -0.0387 -0.3670 -0.3172
  658TIP3    H228898   1.963   1.881   1.422 -0.0732 -0.4241  1.2032
  659TIP3   OH228899   7.459   8.431   6.261 -0.3864  0.0440 -0.6569
  659TIP3    H128900   7.440   8.372   6.188 -0.9852 -1.1513  0.4165
  659TIP3    H228901   7.432   8.517   6.231  1.5587  0.0402 -2.7046
  660TIP3   OH228902   2.411   0.164   0.195 -0.7368  0.1921  0.0362
  660TIP3    H128903   2.371   0.237   0.241 -1.7555  0.9279 -1.8965
  660TIP3    H228904   2.486   0.203   0.150 -0.2121 -0.3486  0.4298
  661TIP3   OH228905   4.977   4.533   6.650  0.3908 -0.0050  0.8413
  661TIP3    H128906   4.984   4.608   6.710 -1.2039  0.0175  1.0371
  661TIP3    H228907   4.959   4.458   6.706 -1.5326  0.0862  0.3875
  662TIP3   OH228908   0.493   6.108   6.439 -0.2749  0.8405 -0.1021
  662TIP3    H128909   0.473   6.118   6.532  0.6769  2.6638 -0.0483
  662TIP3    H228910   0.488   6.197   6.403  0.4815  0.3348 -1.5593
  663TIP3   OH228911   8.326   7.643   5.860  0.1351 -0.1870 -0.0136
  663TIP3    H128912   8.259   7.681   5.803  0.6823  0.5082 -0.1950
  663TIP3    H228913   8.403   7.634   5.805  0.2900 -0.6949  0.2802
  664TIP3   OH228914   7.101   0.114   0.037  0.3158 -0.3254 -0.1558
  664TIP3    H128915   7.129   0.162   0.115  0.3457 -1.9574  0.8713
  664TIP3    H228916   7.151   0.153   7.037 -0.0686  1.5260  0.5325
  665TIP3   OH228917   4.791   7.601   0.148  0.4284 -0.4928  0.3436
  665TIP3    H128918   4.838   7.570   0.071 -2.6034 -1.0469 -1.4521
  665TIP3    H228919   4.804   7.696   0.148  1.3548 -0.6105 -0.1954
  666TIP3   OH228920   2.121   5.333   5.261 -0.2684 -0.3989 -0.7183
  666TIP3    H128921   2.061   5.294   5.198  0.9939  1.1000 -2.9828
  666TIP3    H228922   2.185   5.380   5.208  0.7772  1.1369  1.7112
  667TIP3   OH228923   0.647   3.154   1.340 -0.4936 -0.1679  0.0179
  667TIP3    H128924   0.721   3.121   1.289  0.2235  0.4530  0.6209
  667TIP3    H228925   0.679   3.155   1.430 -1.2778  0.0144  0.3065
  668TIP3   OH228926   7.796   0.858   0.407 -0.1523 -0.5734  0.0848
  668TIP3    H128927   7.876   0.833   0.362 -0.3540 -1.0611 -0.0089
  668TIP3    H228928   7.822   0.868   0.499 -0.2267 -1.9156  0.2645
  669TIP3   OH228929   0.390   7.008   6.293 -0.5916 -0.9032  0.1276
  669TIP3    H128930   0.302   6.969   6.293 -0.0334 -2.2491 -0.8642
  669TIP3    H228931   0.440   6.954   6.354 -0.7402  0.6428  1.6728
  670TIP3   OH228932   2.001   5.539   5.059 -0.2607 -0.6379 -0.2904
  670TIP3    H128933   2.095   5.522   5.064 -0.1929 -0.2148 -0.0793
  670TIP3    H228934   1.960   5.457   5.087  0.0494 -0.6405  0.1573
  671TIP3   OH228935   6.815   0.196   6.669 -0.0170 -0.7423 -0.1935
  671TIP3    H128936   6.733   0.171   6.626  0.3969 -2.9578  0.1971
  671TIP3    H228937   6.811   0.154   6.755  1.4348 -0.7420 -0.0996
  672TIP3   OH228938   0.221   7.871   0.611 -0.3043 -0.1712  0.9310
  672TIP3    H128939   0.273   7.868   0.691  0.4674 -0.2221  0.4404
  672TIP3    H228940   0.266   7.934   0.555 -0.4583 -0.6140  0.2872
  673TIP3   OH228941   7.528   6.164   0.479  0.1640  1.1581  0.7130
  673TIP3    H128942   7.438   6.138   0.460  0.3818  1.3532 -0.7199
  673TIP3    H228943   7.581   6.112   0.419  0.9874  1.2839  1.3161
  674TIP3   OH228944   8.277   1.105   6.945 -0.4596  0.5259  0.1301
  674TIP3    H128945   8.211   1.173   6.933 -0.8097  0.4545  1.4771
  674TIP3    H228946   8.297   1.075   6.856 -2.2305  0.5607 -0.3258
  675TIP3   OH228947   4.160   5.373   0.207  0.4127  0.5683 -0.0771
  675TIP3    H128948   4.098   5.419   0.264  1.2689  0.9888  0.5541
  675TIP3    H228949   4.107   5.309   0.160 -0.3098  0.0521  1.3534
  676TIP3   OH228950   6.795   3.881   6.990  0.0293 -0.0301  0.3954
  676TIP3    H128951   6.749   3.804   7.023  1.7950 -2.0311 -1.5459
  676TIP3    H228952   6.887   3.866   7.010  0.6043  0.7892 -1.3954
  677TIP3   OH228953   2.441   6.512   6.720 -0.4199  0.5444  0.3373
  677TIP3    H128954   2.414   6.490   6.809  0.8326 -0.8798  0.4200
  677TIP3    H228955   2.362   6.501   6.667 -0.9260  0.3569  1.1163
  678TIP3   OH228956   4.873   7.995   0.834 -0.3936  0.0574 -0.3415
  678TIP3    H128957   4.968   8.004   0.839 -0.3695 -0.2889 -0.1279
  678TIP3    H228958   4.839   8.081   0.858 -0.1670 -0.2302  1.1202
  679TIP3   OH228959   6.373   8.276   6.153 -0.1647  0.2071 -0.1227
  679TIP3    H128960   6.280   8.263   6.133  0.0246  1.7319 -2.2253
  679TIP3    H228961   6.418   8.212   6.098  0.0495 -0.8646  1.2549
  680TIP3   OH228962   4.414   7.941   4.875 -0.4087 -0.4501  0.0914
  680TIP3    H128963   4.453   7.933   4.962 -0.3322 -1.7947 -0.0425
  680TIP3    H228964   4.408   8.036   4.860  1.1755 -0.1866  0.8391
  681TIP3   OH228965   2.106   2.845   1.425  0.2030 -0.1475 -0.1287
  681TIP3    H128966   2.201   2.835   1.428  0.0618 -1.6583  0.4040
  681TIP3    H228967   2.083   2.876   1.513  0.2044  0.3264 -0.2924
  682TIP3   OH228968   3.725   8.438   5.663  0.2714  0.2621 -0.4624
  682TIP3    H128969   3.649   8.487   5.693 -0.7854 -0.8537 -1.1926
  682TIP3    H228970   3.799   8.497   5.675 -0.8777  1.8508 -0.8857
  683TIP3   OH228971   5.827   1.342   5.804 -0.6452  0.5352 -0.4499
  683TIP3    H128972   5.890   1.396   5.852  0.9499 -0.8298 -0.9177
  683TIP3    H228973   5.742   1.382   5.822  0.4056  2.9006 -0.3859
  684TIP3   OH228974   7.129   8.433   5.730 -0.0326  0.2330  0.6450
  684TIP3    H128975   7.067   8.403   5.663 -0.8201  2.6895  0.1639
  684TIP3    H228976   7.215   8.417   5.692 -0.4275 -0.1431 -0.1266
  685TIP3   OH228977   6.306   7.270   5.914 -0.2561  0.7399 -0.0351
  685TIP3    H128978   6.212   7.287   5.926 -0.2230  1.2122 -0.4089
  685TIP3    H228979   6.329   7.213   5.987 -0.9888  0.0291 -0.3379
  686TIP3   OH228980   7.796   8.485   1.986 -0.1640 -0.0751 -0.1544
  686TIP3    H128981   7.803   8.403   1.937 -0.6823  0.0002 -0.3556
  686TIP3    H228982   7.779   0.016   1.919 -0.6313  0.0665  0.1000
  687TIP3   OH228983   4.625   5.385   5.361  0.4820 -0.1178  0.1548
  687TIP3    H128984   4.655   5.294   5.354 -0.6432 -0.4703 -0.3047
  687TIP3    H228985   4.596   5.408   5.273 -3.5606 -0.9186  1.0904
  688TIP3   OH228986   0.151   5.007   7.031  0.3482  0.0273  0.1002
  688TIP3    H128987   0.079   5.017   6.969 -0.6012  1.0784  1.3231
  688TIP3    H228988   0.208   4.941   6.991 -0.6370  0.0888 -1.4864
  689TIP3   OH228989   2.906   3.512   5.890  0.2671  0.1565 -0.1484
  689TIP3    H128990   2.917   3.607   5.884  0.1462  0.1209 -1.0621
  689TIP3    H228991   2.994   3.477   5.881  0.6665  0.2370  2.5158
  690TIP3   OH228992   4.097   1.578   6.412  0.1087 -0.1486  0.3108
  690TIP3    H128993   4.127   1.666   6.392  0.4966 -0.0507  1.2462
  690TIP3    H228994   4.079   1.538   6.327  1.0842  0.4293 -0.1792
  691TIP3   OH228995   7.750   4.461   6.140 -0.1833  0.6567 -0.9608
  691TIP3    H128996   7.703   4.428   6.063  0.6283 -0.5090 -0.9817
  691TIP3    H228997   7.826   4.403   6.148 -1.4038 -0.7475  2.0344
  692TIP3   OH228998   5.846   4.493   5.891 -0.1390  0.3279 -0.0559
  692TIP3    H128999   5.919   4.544   5.927 -1.1372  1.1084  0.9417
  692TIP3    H229000   5.769   4.548   5.907 -0.9771 -0.5583 -0.9231
  693TIP3   OH229001   7.457   6.013   6.978 -0.4050  0.4432  0.1666
  693TIP3    H129002   7.416   6.049   6.899  0.2760 -0.3967 -0.5881
  693TIP3    H229003   7.384   6.005   7.040 -0.9191  1.2852 -0.3038
  694TIP3   OH229004   0.640   7.472   6.143  0.3152 -0.2355 -0.8030
  694TIP3    H129005   0.572   7.462   6.076 -1.3942 -0.4171  0.8713
  694TIP3    H229006   0.701   7.400   6.126 -0.8777 -1.1819 -1.2636
  695TIP3   OH229007   8.331   0.677   5.292 -0.0335  0.2073 -0.1749
  695TIP3    H129008   8.288   0.719   5.218 -0.1117  0.3145 -0.0696
  695TIP3    H229009   8.281   0.706   5.368  0.0082  0.0490 -0.0866
  696TIP3   OH229010   2.601   5.136   6.401  0.2301  0.5307  0.4064
  696TIP3    H129011   2.615   5.209   6.340 -1.4985  0.8823  0.3873
  696TIP3    H229012   2.634   5.059   6.354  1.7716  1.2276  0.2937
  697TIP3   OH229013   5.325   7.126   6.751 -0.6843  0.0111 -0.3264
  697TIP3    H129014   5.278   7.145   6.670  0.3965 -0.3039 -1.0557
  697TIP3    H229015   5.414   7.159   6.736  0.3140 -2.4594 -0.3403
  698TIP3   OH229016   0.782   4.698   0.694  0.0823 -0.3398  0.7295
  698TIP3    H129017   0.848   4.634   0.720  0.4927  0.0037  0.5527
  698TIP3    H229018   0.705   4.646   0.670  0.3602 -0.7516  0.7350
  699TIP3   OH229019   7.945   1.164   0.473 -0.0187  0.1218 -0.0729
  699TIP3    H129020   7.905   1.247   0.448 -2.2619 -0.6252  0.7426
  699TIP3    H229021   7.962   1.119   0.390  1.3918  1.4095 -0.5273
  700TIP3   OH229022   2.011   4.533   0.267  0.1495 -0.3258  0.0076
  700TIP3    H129023   1.986   4.537   0.359  0.3412 -2.2275  0.1885
  700TIP3    H229024   2.075   4.462   0.262 -0.2156 -0.5893 -1.6686
  701TIP3   OH229025   5.338   2.636   1.181  0.3386  0.4339  0.8247
  701TIP3    H129026   5.322   2.549   1.216  0.1661  0.3168  0.4595
  701TIP3    H229027   5.251   2.670   1.159  0.3839  0.7838  1.1657
  702TIP3   OH229028   1.417   7.556   6.167  0.0098 -0.4932  0.2136
  702TIP3    H129029   1.474   7.623   6.128 -1.4986  0.7478  0.0334
  702TIP3    H229030   1.475   7.482   6.184  1.3560  0.1357 -1.3811
  703TIP3   OH229031   1.832   8.279   5.255 -0.0100  0.0907 -0.2080
  703TIP3    H129032   1.889   8.347   5.218  0.2296  0.0313  0.0424
  703TIP3    H229033   1.893   8.216   5.294 -0.1793 -0.9204 -1.5344
  704TIP3   OH229034   0.555   4.988   0.921 -0.1400 -0.4008  0.0640
  704TIP3    H129035   0.645   4.973   0.949  0.3138  1.7463 -0.1012
  704TIP3    H229036   0.520   5.052   0.983 -1.1851 -0.3671 -0.5307
  705TIP3   OH229037   3.080   8.454   0.688  0.1972 -0.4629  0.1810
  705TIP3    H129038   3.104   8.412   0.606 -0.8997  1.5143 -1.2462
  705TIP3    H229039   2.995   8.494   0.670 -0.4241 -0.5784  2.5314
  706TIP3   OH229040   1.896   6.408   0.009 -0.6473 -0.0005  0.1194
  706TIP3    H129041   1.867   6.479   7.022 -0.3236  0.0170 -0.0235
  706TIP3    H229042   1.827   6.342   0.002 -0.2190 -0.3553 -0.9301
  707TIP3   OH229043   6.869   4.874   1.124 -0.2270  0.4818  0.3760
  707TIP3    H129044   6.892   4.958   1.165 -0.8332  0.5836  0.5161
  707TIP3    H229045   6.784   4.851   1.162  0.9755 -1.3807  2.1823
  708TIP3   OH229046   6.192   0.936   1.589 -0.1131  0.4072  0.2778
  708TIP3    H129047   6.255   0.996   1.628  1.0713 -0.4709 -0.2088
  708TIP3    H229048   6.225   0.921   1.500  0.0098 -1.4419  0.5848
  709TIP3   OH229049   1.506   1.593   0.115  0.0616  0.1909  0.2580
  709TIP3    H129050   1.476   1.598   0.024 -2.9839 -1.9451  0.9816
  709TIP3    H229051   1.589   1.641   0.115 -0.3931  1.3294 -3.3486
  710TIP3   OH229052   5.623   6.523   6.686 -0.4891 -0.3426  0.0815
  710TIP3    H129053   5.577   6.571   6.755  1.5033  1.2202  0.4167
  710TIP3    H229054   5.651   6.442   6.728 -0.5591 -0.0601  0.6849
  711TIP3   OH229055   7.304   0.298   6.956 -1.0228 -0.0862  0.4161
  711TIP3    H129056   7.232   0.309   6.894 -0.5356 -0.5338 -0.2527
  711TIP3    H229057   7.383   0.311   6.903 -0.5075 -2.6671  0.3969
  712TIP3   OH229058   7.251   7.216   2.092 -0.0648 -0.1131 -0.5335
  712TIP3    H129059   7.277   7.128   2.067  0.1624 -0.1631 -0.1196
  712TIP3    H229060   7.161   7.224   2.061 -0.8539 -1.2605  1.3572
  713TIP3   OH229061   6.488   5.034   5.596 -0.1709 -0.0747 -0.5776
  713TIP3    H129062   6.467   5.051   5.505 -0.5387  1.4325 -0.2506
  713TIP3    H229063   6.406   5.052   5.643  0.2105 -0.1007  0.1116
  714TIP3   OH229064   7.468   1.519   5.953  0.3319  0.9386 -0.3835
  714TIP3    H129065   7.535   1.482   6.009  2.2473  3.7250 -0.6451
  714TIP3    H229066   7.464   1.460   5.878 -0.3081 -1.3152  1.3191
  715TIP3   OH229067   6.723   4.309   0.666  0.1846  0.0937  0.5028
  715TIP3    H129068   6.746   4.335   0.577  0.2835  0.6965  0.6946
  715TIP3    H229069   6.760   4.222   0.677  0.1559  0.0084 -0.0490
  716TIP3   OH229070   7.590   3.877   1.276  0.1134 -0.0427  0.4521
  716TIP3    H129071   7.584   3.858   1.369  0.6187 -2.1186  0.1173
  716TIP3    H229072   7.499   3.893   1.249  0.1474  2.8651  1.6322
  717TIP3   OH229073   6.380   5.168   0.981 -0.2644  0.1234 -0.5049
  717TIP3    H129074   6.412   5.160   0.891  0.4551 -3.2037 -0.0773
  717TIP3    H229075   6.294   5.209   0.972 -0.8533 -1.4350 -2.9146
  718TIP3   OH229076   1.044   4.053   5.283 -0.3284 -0.0966 -0.3838
  718TIP3    H129077   1.083   4.108   5.215 -1.2348  0.0572 -0.7941
  718TIP3    H229078   1.091   3.970   5.278 -0.2504 -0.0114 -1.0636
  719TIP3   OH229079   6.737   2.900   6.054  0.6111 -0.1104  0.3283
  719TIP3    H129080   6.823   2.864   6.033  0.5803 -0.3676  0.6297
  719TIP3    H229081   6.749   2.995   6.048  0.4837 -0.1804 -1.2380
  720TIP3   OH229082   2.113   5.420   0.035  0.1714 -0.2608 -0.0949
  720TIP3    H129083   2.160   5.343   0.067  4.6507  2.3056  0.2933
  720TIP3    H229084   2.048   5.439   0.103  0.7302 -2.1931  1.0558
  721TIP3   OH229085   0.823   3.104   6.311  0.2499  0.1116 -0.4344
  721TIP3    H129086   0.874   3.142   6.239  1.5497  1.1765  1.0132
  721TIP3    H229087   0.764   3.175   6.338 -1.4866 -0.8316 -1.5188
  722TIP3   OH229088   8.099   2.995   6.280 -0.3843  0.0368  0.0131
  722TIP3    H129089   8.088   2.907   6.316  0.3707  0.3003  0.9365
  722TIP3    H229090   8.192   3.013   6.290 -0.8840  1.8835  2.1303
  723TIP3   OH229091   4.706   2.080   6.320 -0.0182  0.0048 -0.3985
  723TIP3    H129092   4.696   1.985   6.317 -1.3222  0.1299 -2.7114
  723TIP3    H229093   4.778   2.098   6.259 -0.0277  0.5253 -0.2608
  724TIP3   OH229094   8.402   8.083   0.683 -0.7450  0.0349  0.5793
  724TIP3    H129095   8.353   8.023   0.740 -2.0234  1.4837  1.0463
  724TIP3    H229096   8.358   8.167   0.693 -0.1866  0.6293 -1.5599
  725TIP3   OH229097   7.696   8.241   6.634 -0.1294 -0.4274  0.6472
  725TIP3    H129098   7.767   8.299   6.606  0.2845 -1.7267 -1.1493
  725TIP3    H229099   7.636   8.299   6.683 -1.6313  2.5694 -3.9891
  726TIP3   OH229100   4.818   8.075   6.184 -0.3994  0.2629  0.6407
  726TIP3    H129101   4.780   8.100   6.268  0.3754  0.7057  0.8770
  726TIP3    H229102   4.781   7.989   6.165 -0.0139 -0.1734  1.8022
  727TIP3   OH229103   5.507   2.349   1.008 -0.1489 -0.7250  0.1792
  727TIP3    H129104   5.534   2.276   0.954 -1.6503 -0.9497 -0.2900
  727TIP3    H229105   5.419   2.370   0.979 -1.2025 -1.1309  2.7992
  728TIP3   OH229106   7.154   5.784   6.755 -0.5884 -0.3523 -0.4768
  728TIP3    H129107   7.181   5.723   6.824  0.6077 -1.9468 -2.2370
  728TIP3    H229108   7.067   5.814   6.782 -0.7339 -1.9579  1.0551
  729TIP3   OH229109   1.366   8.189   1.479  0.1938  0.3655  0.3201
  729TIP3    H129110   1.427   8.144   1.537 -1.8189  0.4821  2.6946
  729TIP3    H229111   1.287   8.135   1.480 -0.3252  1.0088 -1.3938
  730TIP3   OH229112   8.405   3.626   6.940 -0.0984 -0.0423 -0.6470
  730TIP3    H129113   8.383   3.650   6.850 -1.1969  0.2277 -0.3236
  730TIP3    H229114   8.321   3.603   6.980  0.1330  1.3450  0.7474
  731TIP3   OH229115   0.378   0.386   0.501  0.0704  0.1019 -0.2391
  731TIP3    H129116   0.429   0.307   0.513 -2.1072 -1.6037 -1.3833
  731TIP3    H229117   0.340   0.377   0.413 -1.1806  1.8400  0.0633
  732TIP3   OH229118   6.844   4.014   6.335 -0.8477  0.0618 -0.2539
  732TIP3    H129119   6.933   4.050   6.330 -0.2838 -1.3964 -1.9602
  732TIP3    H229120   6.788   4.085   6.304 -0.1278  0.5560 -0.4566
  733TIP3   OH229121   1.572   0.989   5.240 -0.9564  0.2720  0.3539
  733TIP3    H129122   1.645   0.931   5.222 -0.2331  1.6762 -1.5616
  733TIP3    H229123   1.494   0.933   5.237 -0.1987 -0.7600 -0.4100
  734TIP3   OH229124   1.349   1.085   6.229 -0.0174 -0.3361  0.3271
  734TIP3    H129125   1.262   1.048   6.244  0.0718 -0.4519  0.5565
  734TIP3    H229126   1.338   1.142   6.152 -0.1678 -0.8061 -0.0076
  735TIP3   OH229127   0.490   5.866   5.403  0.1748 -0.5303 -0.2505
  735TIP3    H129128   0.485   5.938   5.341 -0.6901 -0.2157  0.1687
  735TIP3    H229129   0.545   5.801   5.360  4.2362  1.8267  0.8511
  736TIP3   OH229130   2.862   4.083   0.732 -0.1354 -0.7471 -0.5154
  736TIP3    H129131   2.884   4.033   0.810  1.3370  1.2594  0.4588
  736TIP3    H229132   2.939   4.138   0.717 -1.0608  0.1224 -2.4005
  737TIP3   OH229133   4.009   0.060   6.355 -0.3740 -0.6011 -0.3544
  737TIP3    H129134   3.945   0.084   6.289 -1.6819 -0.0027  1.0792
  737TIP3    H229135   3.978   8.512   6.391 -0.7871  0.0443  0.8448
  738TIP3   OH229136   6.365   4.552   6.272 -0.2902 -0.1442 -0.2935
  738TIP3    H129137   6.340   4.462   6.293  1.8367 -0.6868  0.2260
  738TIP3    H229138   6.346   4.602   6.351  0.0847 -0.4979  0.0242
  739TIP3   OH229139   4.028   5.249   5.249 -0.0769 -0.6065 -0.0080
  739TIP3    H129140   4.005   5.340   5.229 -0.5383 -0.9580 -1.1748
  739TIP3    H229141   3.950   5.213   5.291 -0.4719 -0.8610 -0.9185
  740TIP3   OH229142   2.241   5.991   0.120 -0.8518  0.2560 -0.2638
  740TIP3    H129143   2.307   5.933   0.157  1.6361  0.8640 -3.3628
  740TIP3    H229144   2.183   5.932   0.071 -0.2023  0.0799 -0.8294
  741TIP3   OH229145   2.271   2.352   0.112 -0.4927  0.2034  0.1281
  741TIP3    H129146   2.243   2.420   0.051  0.4316  1.1503  0.7311
  741TIP3    H229147   2.279   2.397   0.196 -1.4273 -1.0111  0.8927
  742TIP3   OH229148   2.668   2.351   6.944  0.0616  0.5902  0.4815
  742TIP3    H129149   2.589   2.391   6.909  0.0349  0.0643 -0.0811
  742TIP3    H229150   2.727   2.424   6.961  0.0049  0.8867 -0.5134
  743TIP3   OH229151   5.677   7.191   0.874  0.2776  0.6000 -0.8260
  743TIP3    H129152   5.676   7.181   0.779 -0.2442  1.4267 -0.9192
  743TIP3    H229153   5.613   7.128   0.906 -0.1408  0.8849 -1.0888
  744TIP3   OH229154   8.508   5.831   6.466  0.3956 -0.6749  0.3160
  744TIP3    H129155   8.446   5.769   6.427 -0.1887 -0.5110  0.9609
  744TIP3    H229156   0.018   5.780   6.533 -0.4996 -0.2701  1.2506
  745TIP3   OH229157   5.720   2.914   0.188 -0.7433 -0.2372  0.1106
  745TIP3    H129158   5.796   2.959   0.226  0.0413  0.7916 -2.4739
  745TIP3    H229159   5.646   2.946   0.240  0.3083  0.6890  1.1076
  746TIP3   OH229160   6.865   0.753   2.206  0.1012 -0.2571  0.3007
  746TIP3    H129161   6.822   0.670   2.186  0.7108 -0.5456  0.1803
  746TIP3    H229162   6.793   0.810   2.234 -0.2206 -1.0817  1.2451
  747TIP3   OH229163   3.957   6.585   0.855  0.4186 -0.1565  0.2015
  747TIP3    H129164   3.975   6.668   0.811 -0.0368 -0.7331 -1.1143
  747TIP3    H229165   4.034   6.571   0.910  0.5088  1.1235  0.4300
  748TIP3   OH229166   5.397   4.794   5.924 -0.0763  0.1214 -0.1780
  748TIP3    H129167   5.389   4.889   5.915  0.1844  0.1418 -0.2029
  748TIP3    H229168   5.338   4.771   5.995  0.5886  0.4276  0.4811
  749TIP3   OH229169   5.816   1.917   0.662 -0.1116 -0.5387 -0.3732
  749TIP3    H129170   5.765   1.963   0.596 -2.2367  0.1145  1.5824
  749TIP3    H229171   5.755   1.904   0.735  1.9663 -1.6019  1.2968
  750TIP3   OH229172   2.204   3.062   7.055 -0.6878  0.9084  0.7248
  750TIP3    H129173   2.109   3.055   7.064 -0.5956 -0.6176  0.7035
  750TIP3    H229174   2.217   3.125   6.984 -1.8827 -2.9199 -3.3485
  751TIP3   OH229175   4.462   7.307   6.910 -0.1622  0.4155 -0.2440
  751TIP3    H129176   4.462   7.315   7.005  0.6947  1.2827 -0.3090
  751TIP3    H229177   4.379   7.262   6.890 -0.1284 -0.2036  0.9328
  752TIP3   OH229178   3.635   1.380   6.735  0.4677  0.1459  0.4208
  752TIP3    H129179   3.688   1.404   6.660  0.3455  0.4249  0.4215
  752TIP3    H229180   3.572   1.451   6.744 -0.5003 -0.6192 -0.1309
  753TIP3   OH229181   7.094   4.172   0.567 -0.0221 -0.1953 -0.1419
  753TIP3    H129182   7.104   4.131   0.481  1.6884  1.9610 -1.0916
  753TIP3    H229183   7.183   4.179   0.601 -0.3277  1.6718  0.4217
  754TIP3   OH229184   0.094   7.123   6.433 -0.0465  0.3867  0.1171
  754TIP3    H129185   0.053   7.204   6.463 -0.3966 -0.3830  1.8584
  754TIP3    H229186   0.186   7.133   6.457  0.3696  1.1157 -1.6170
  755TIP3   OH229187   6.944   3.412   6.434 -0.1509  0.3843  0.3161
  755TIP3    H129188   7.013   3.473   6.408 -0.5617  0.8997  0.4100
  755TIP3    H229189   6.984   3.358   6.502 -0.5402  2.3060  2.1919
  756TIP3   OH229190   5.275   4.675   2.025  0.4610 -0.2475  0.0167
  756TIP3    H129191   5.327   4.661   1.946 -0.1582 -1.1436 -0.2430
  756TIP3    H229192   5.296   4.601   2.081  0.2229 -0.0824  0.3309
  757TIP3   OH229193   5.166   7.983   0.852 -0.3164  0.2552  0.2728
  757TIP3    H129194   5.228   8.053   0.874  0.2380 -0.5325  1.3142
  757TIP3    H229195   5.196   7.949   0.768 -0.3696  1.0118 -0.0588
  758TIP3   OH229196   4.498   3.692   6.074 -0.4025  0.2244 -0.0286
  758TIP3    H129197   4.547   3.726   6.148  0.4331 -1.0729  0.0461
  758TIP3    H229198   4.419   3.747   6.069  0.0240  0.9653  1.1734
  759TIP3   OH229199   1.937   4.573   6.270  0.2318  0.2325 -0.5575
  759TIP3    H129200   1.924   4.557   6.363 -0.9147 -2.4105 -1.0911
  759TIP3    H229201   1.886   4.652   6.252 -1.4190 -0.5088  0.6406
  760TIP3   OH229202   4.215   7.960   0.528  0.5962  0.1485  0.2932
  760TIP3    H129203   4.218   8.056   0.538  2.7891  0.0254  1.5820
  760TIP3    H229204   4.233   7.927   0.616 -1.0064 -1.5069  0.0504
  761TIP3   OH229205   6.668   7.175   0.584 -0.2527 -0.4666  0.3482
  761TIP3    H129206   6.708   7.153   0.499 -0.0540 -1.8485  0.7721
  761TIP3    H229207   6.607   7.103   0.601 -2.0519  0.9784  0.3079
  762TIP3   OH229208   1.051   3.819   4.972 -0.1410  0.1715  0.4000
  762TIP3    H129209   0.972   3.775   4.940 -0.5047  1.3970 -0.4785
  762TIP3    H229210   1.123   3.765   4.942 -0.6171 -0.5347  0.5067
  763TIP3   OH229211   1.274   8.416   1.606 -0.2685 -0.2056  0.0600
  763TIP3    H129212   1.227   8.365   1.672 -1.5883  0.2966 -0.4398
  763TIP3    H229213   1.319   8.351   1.553 -0.8465 -0.7685  0.2440
  764TIP3   OH229214   8.513   2.259   5.955  0.2050  0.3122  0.1857
  764TIP3    H129215   0.038   2.319   6.000  0.5105 -0.7341  1.2284
  764TIP3    H229216   8.427   2.297   5.969  0.3608  0.3489  1.1246
  765TIP3   OH229217   1.622   2.615   0.475  0.3882 -0.3744  0.4067
  765TIP3    H129218   1.675   2.605   0.396  0.1201 -0.2825  0.2177
  765TIP3    H229219   1.676   2.669   0.533 -0.3229  1.4284 -0.5474
  766TIP3   OH229220   6.665   8.278   6.348 -0.2310 -0.1628 -0.1045
  766TIP3    H129221   6.700   8.195   6.379 -0.6855  0.6477  2.8593
  766TIP3    H229222   6.577   8.256   6.316  0.1515 -0.9892 -0.6384
  767TIP3   OH229223   3.574   2.230   0.271 -0.6055  0.4372 -0.1508
  767TIP3    H129224   3.658   2.216   0.314 -0.4308  0.9800 -0.3112
  767TIP3    H229225   3.512   2.178   0.322 -0.1085 -0.2769 -0.2682
  768TIP3   OH229226   7.166   5.844   1.248  0.2292 -0.1867  0.6464
  768TIP3    H129227   7.216   5.915   1.206 -0.8025 -0.6485 -1.4902
  768TIP3    H229228   7.082   5.884   1.269 -0.5610 -0.8396 -1.0666
  769TIP3   OH229229   1.559   0.868   6.857  0.7086  0.2635  0.0341
  769TIP3    H129230   1.586   0.820   6.779  0.1629 -0.4096  0.2456
  769TIP3    H229231   1.500   0.808   6.902  1.5327  0.3607  1.3096
  770TIP3   OH229232   2.461   6.043   6.822 -0.1221  0.1342  0.2376
  770TIP3    H129233   2.506   5.986   6.885 -0.3697 -1.8096 -1.2758
  770TIP3    H229234   2.368   6.029   6.840 -0.1793  0.7160  0.4050
  771TIP3   OH229235   5.931   8.015   0.500  0.4748  0.4838 -0.3009
  771TIP3    H129236   5.897   8.089   0.451 -0.6981 -0.7727 -1.4813
  771TIP3    H229237   6.026   8.027   0.499  0.3309  1.6967 -0.9073
  772TIP3   OH229238   6.003   4.745   5.869 -0.2262 -0.0906  0.0495
  772TIP3    H129239   6.064   4.812   5.901 -0.4751  0.7540 -1.1516
  772TIP3    H229240   6.046   4.711   5.790 -0.0213 -1.5059  0.7377
  773TIP3   OH229241   6.090   7.842   7.054 -0.2936 -0.2873 -0.5561
  773TIP3    H129242   6.119   7.934   7.052 -1.0357 -0.0658 -1.8199
  773TIP3    H229243   6.036   7.836   0.062  1.6250 -0.2497  0.8342
  774TIP3   OH229244   3.391   3.479   4.967  0.4719 -0.3334  0.3538
  774TIP3    H129245   3.468   3.465   4.911 -0.2616  0.5031 -0.9047
  774TIP3    H229246   3.362   3.568   4.946 -1.3390 -0.9394  0.1735
  775TIP3   OH229247   0.736   7.164   0.627 -0.8375 -0.8708  0.2696
  775TIP3    H129248   0.724   7.159   0.532  1.0979  0.1878 -0.0820
  775TIP3    H229249   0.737   7.258   0.646  1.4776 -0.9534  0.8842
  776TIP3   OH229250   3.830   7.383   0.046  0.2912  0.3764 -0.5709
  776TIP3    H129251   3.925   7.373   0.039  0.2728  0.0358 -0.3636
  776TIP3    H229252   3.802   7.310   0.102 -0.4555 -1.2486 -2.9240
  777TIP3   OH229253   7.423   2.992   5.220 -0.3083  0.2326 -0.1502
  777TIP3    H129254   7.494   3.004   5.157 -0.6729 -2.4411 -1.2023
  777TIP3    H229255   7.370   3.071   5.211  0.2440  0.4222 -2.4383
  778TIP3   OH229256   0.251   7.452   1.145  0.1977 -0.0352 -0.4743
  778TIP3    H129257   0.339   7.419   1.163  0.0537 -0.4385 -0.5129
  778TIP3    H229258   0.198   7.421   1.218 -0.2711 -1.2215 -1.3086
  779TIP3   OH229259   8.061   3.802   1.222 -0.1442 -0.4254  0.1798
  779TIP3    H129260   8.033   3.866   1.158 -0.3341 -1.1941 -0.5240
  779TIP3    H229261   8.141   3.764   1.186  0.6295  0.2180  1.1479
  780TIP3   OH229262   3.565   0.616   6.648  0.3280  0.0880  0.4115
  780TIP3    H129263   3.549   0.654   6.562  0.9522 -2.3781 -0.8810
  780TIP3    H229264   3.485   0.566   6.668  0.0315  0.9458  1.4633
  781TIP3   OH229265   5.217   5.951   6.250  0.3019  0.0470 -0.6960
  781TIP3    H129266   5.239   6.018   6.185 -1.0693  2.1804  0.8622
  781TIP3    H229267   5.285   5.959   6.317  0.8032 -0.9947 -1.0701
  782TIP3   OH229268   1.499   2.361   5.785  0.4573 -0.2467  0.3329
  782TIP3    H129269   1.515   2.272   5.816 -0.9316 -0.5513  0.2426
  782TIP3    H229270   1.436   2.398   5.846  0.9636  0.6641  0.3293
  783TIP3   OH229271   7.230   3.402   5.641  0.3016  0.3408  0.1122
  783TIP3    H129272   7.319   3.397   5.677  1.2679  1.3198 -1.9725
  783TIP3    H229273   7.178   3.442   5.711  1.7642  0.9229  0.9161
  784TIP3   OH229274   2.594   5.279   4.815  0.2157  0.6081  0.1401
  784TIP3    H129275   2.663   5.345   4.806 -0.6775  1.4322 -0.8199
  784TIP3    H229276   2.523   5.324   4.859  0.1969 -0.1902  0.9560
  785TIP3   OH229277   2.067   6.482   6.314  0.0528  0.0849 -0.0334
  785TIP3    H129278   2.117   6.405   6.289  0.5148  0.8845 -1.7309
  785TIP3    H229279   2.092   6.549   6.250 -1.2390  1.2884  0.6517
  786TIP3   OH229280   1.128   0.903   0.881  0.8165  0.0224  0.1056
  786TIP3    H129281   1.222   0.919   0.895  1.2220 -1.5008 -0.6523
  786TIP3    H229282   1.085   0.959   0.945  2.3572 -1.3820  2.5647
  787TIP3   OH229283   2.867   2.497   7.071  0.7259  0.2399  0.1108
  787TIP3    H129284   2.931   2.529   7.007  0.2476  1.6612  0.3011
  787TIP3    H229285   2.907   2.515   0.085 -0.2390  1.9468  0.2499
  788TIP3   OH229286   1.992   1.975   5.392 -0.0645 -0.1196  0.0075
  788TIP3    H129287   1.939   1.921   5.334 -1.6951 -1.7722  2.8132
  788TIP3    H229288   2.055   1.915   5.431  1.4613  1.0944 -0.4421
  789TIP3   OH229289   7.268   0.123   5.899 -0.2557 -0.0510  0.5115
  789TIP3    H129290   7.248   0.127   5.806  0.3469 -0.6685  0.3513
  789TIP3    H229291   7.184   0.142   5.943 -0.8635 -1.1268 -0.1435
  790TIP3   OH229292   2.363   4.374   5.414  0.3031  0.2497  0.1824
  790TIP3    H129293   2.293   4.308   5.412  0.0884  0.4839 -1.6261
  790TIP3    H229294   2.316   4.457   5.424  0.5886  0.1835  2.7510
  791TIP3   OH229295   3.721   8.129   5.943 -0.2534 -0.1073 -0.0507
  791TIP3    H129296   3.726   8.202   6.005  1.9212 -0.0757 -0.1836
  791TIP3    H229297   3.629   8.104   5.943 -1.0790  2.6129  0.0041
  792TIP3   OH229298   1.934   4.497   5.572 -0.2785  0.2778  0.1784
  792TIP3    H129299   1.872   4.520   5.503  0.0415 -1.6927 -0.8431
  792TIP3    H229300   2.010   4.552   5.555 -0.4692  0.3013 -0.6519
  793TIP3   OH229301   6.187   5.252   1.221  0.7728  0.5967 -0.0931
  793TIP3    H129302   6.131   5.285   1.150 -0.7415 -0.1589  0.6941
  793TIP3    H229303   6.243   5.326   1.244 -0.3516  1.6152 -0.4886
  794TIP3   OH229304   2.543   5.589   6.239  0.1828  0.5690 -0.0331
  794TIP3    H129305   2.503   5.652   6.299 -0.9763 -0.0925 -0.0695
  794TIP3    H229306   2.584   5.524   6.297 -0.3672  0.2867  0.0502
  795TIP3   OH229307   2.538   3.748   0.379 -0.4809 -0.2634 -0.1221
  795TIP3    H129308   2.604   3.720   0.315  1.0008 -0.7582  1.5434
  795TIP3    H229309   2.575   3.826   0.419 -1.6694  0.3889 -0.2609
  796TIP3   OH229310   7.468   5.706   0.852 -0.2032 -0.0284  0.4530
  796TIP3    H129311   7.413   5.784   0.838  0.0438  0.3439  1.5213
  796TIP3    H229312   7.451   5.680   0.942 -0.9387 -1.7507 -0.1351
  797TIP3   OH229313   8.174   0.527   6.532  0.1062  0.3480 -0.4420
  797TIP3    H129314   8.167   0.435   6.508  0.7158  0.6029 -1.6525
  797TIP3    H229315   8.255   0.533   6.582  0.5690  0.3900 -1.1924
  798TIP3   OH229316   5.692   0.326   1.610  0.1104 -0.0955  0.3618
  798TIP3    H129317   5.776   0.332   1.657  0.1839 -1.5761  0.4735
  798TIP3    H229318   5.662   0.236   1.626 -1.5136  0.4127  0.3310
  799TIP3   OH229319   1.385   3.150   7.062  0.1555 -0.1468 -0.3947
  799TIP3    H129320   1.365   3.205   0.068  1.3973  1.8440 -1.4177
  799TIP3    H229321   1.378   3.060   0.024  2.2984  0.5950  2.5383
  800TIP3   OH229322   1.352   7.557   1.323 -0.5734  0.1445 -0.4571
  800TIP3    H129323   1.292   7.629   1.304 -2.1290 -1.3085 -1.2878
  800TIP3    H229324   1.296   7.483   1.344  0.9222 -1.2296 -1.0584
  801TIP3   OH229325   5.099   5.562   0.378  0.0828 -0.5122 -0.2177
  801TIP3    H129326   5.040   5.526   0.445 -0.0580 -0.2523 -0.2003
  801TIP3    H229327   5.068   5.523   0.296  0.6637 -1.3403 -0.0537
  802TIP3   OH229328   3.406   2.247   1.827  0.4576 -0.0717 -0.4058
  802TIP3    H129329   3.469   2.286   1.767  0.2162  2.6544  0.9426
  802TIP3    H229330   3.321   2.267   1.789  0.3422  0.4381  0.0953
  803TIP3   OH229331   3.842   4.553   6.967  0.9005 -0.4374  0.4040
  803TIP3    H129332   3.936   4.553   6.951  0.6614  1.2412 -1.4000
  803TIP3    H229333   3.829   4.623   7.032  0.8151  0.0129 -0.0918
  804TIP3   OH229334   4.752   0.335   1.785  0.1842  0.6695 -0.4200
  804TIP3    H129335   4.804   0.404   1.744 -1.7038  0.2542 -3.9517
  804TIP3    H229336   4.661   0.362   1.770 -0.6300 -0.8660  1.3317
  805TIP3   OH229337   2.840   1.426   0.143  0.4328 -0.4573 -0.4390
  805TIP3    H129338   2.921   1.472   0.163 -0.4202  1.6865 -1.6089
  805TIP3    H229339   2.771   1.483   0.177 -0.6358 -1.7608 -0.3504
  806TIP3   OH229340   2.751   7.362   6.848  0.2663  0.0858 -0.4776
  806TIP3    H129341   2.799   7.372   6.930  2.1055 -0.3892 -1.4504
  806TIP3    H229342   2.661   7.387   6.870  0.9270  0.9896  1.4198
  807TIP3   OH229343   3.810   3.591   5.943  0.1114 -0.4860 -0.0167
  807TIP3    H129344   3.780   3.515   5.993  0.9555 -1.6240 -1.1841
  807TIP3    H229345   3.757   3.590   5.863 -1.2670  1.3503  0.7978
  808TIP3   OH229346   2.733   3.039   6.076 -0.0684  0.5552 -0.0223
  808TIP3    H129347   2.819   2.997   6.065 -1.6563 -3.5341  1.1098
  808TIP3    H229348   2.735   3.074   6.165  0.7005  1.3417 -0.3374
  809TIP3   OH229349   2.829   4.926   1.267  0.3435 -0.0343  0.2697
  809TIP3    H129350   2.842   4.837   1.299  0.2097  0.3029  1.2991
  809TIP3    H229351   2.761   4.918   1.200  1.7157 -0.9863 -1.0847
  810TIP3   OH229352   6.311   4.532   1.565 -0.0511  0.5006  0.1941
  810TIP3    H129353   6.218   4.514   1.548  0.3089 -2.3215  0.6383
  810TIP3    H229354   6.342   4.453   1.609  2.4605  1.5986  0.5371
  811TIP3   OH229355   3.059   5.124   0.450  0.2057  0.5010  0.1512
  811TIP3    H129356   2.967   5.100   0.450 -0.0497  1.4285  0.5821
  811TIP3    H229357   3.069   5.178   0.371  0.7141 -0.7524 -0.6738
  812TIP3   OH229358   6.806   5.185   5.863  0.0324 -0.1476 -0.6047
  812TIP3    H129359   6.778   5.130   5.789  0.8359  1.1758 -1.9630
  812TIP3    H229360   6.732   5.182   5.924 -1.3626 -0.0310 -2.1989
  813TIP3   OH229361   5.205   4.773   6.130  0.2653  0.3530  0.2447
  813TIP3    H129362   5.204   4.695   6.185  0.5261  0.3348  0.2223
  813TIP3    H229363   5.174   4.843   6.188  0.2558  0.2788  0.3301
  814TIP3   OH229364   5.191   6.730   6.270 -0.1914  0.3226 -0.5820
  814TIP3    H129365   5.182   6.824   6.257  0.0239  0.3122 -0.8218
  814TIP3    H229366   5.102   6.700   6.290 -0.3355  0.5130 -0.9205
  815TIP3   OH229367   0.178   7.612   5.942 -0.9533  0.0361 -0.8022
  815TIP3    H129368   0.201   7.520   5.954  0.2065  0.2507 -1.2608
  815TIP3    H229369   0.108   7.611   5.876 -0.4568 -0.4689 -1.3290
  816TIP3   OH229370   0.973   1.058   1.041 -0.7759  0.2796  0.3462
  816TIP3    H129371   0.974   1.130   1.104 -1.9497  1.0067 -0.4113
  816TIP3    H229372   0.973   0.979   1.095 -0.9548  0.8756  1.2467
  817TIP3   OH229373   6.070   0.340   6.460  0.1003 -0.6757 -1.4985
  817TIP3    H129374   6.047   0.382   6.377  1.2878 -0.9403 -1.9822
  817TIP3    H229375   6.029   0.395   6.527  0.9050  0.7764 -2.1521
  818TIP3   OH229376   4.270   1.095   7.026 -0.1073 -0.0173 -0.6650
  818TIP3    H129377   4.322   1.167   7.061 -1.0558  0.6447 -0.5625
  818TIP3    H229378   4.313   1.071   6.944  1.6448 -1.0046  0.4827
  819TIP3   OH229379   3.868   2.759   0.411 -0.0771 -0.4257  0.3946
  819TIP3    H129380   3.808   2.727   0.344 -0.7664  0.4411  0.5756
  819TIP3    H229381   3.811   2.793   0.480  0.4301  3.7932 -0.9720
  820TIP3   OH229382   4.145   4.887   6.101 -0.0445  0.1696  0.1538
  820TIP3    H129383   4.201   4.964   6.087 -0.4313  0.3395 -0.5152
  820TIP3    H229384   4.056   4.919   6.085 -0.1960 -0.4507 -0.2689
  821TIP3   OH229385   5.405   7.409   5.599 -1.0426  0.0398 -0.1479
  821TIP3    H129386   5.487   7.442   5.635  0.1717 -2.6769 -0.1485
  821TIP3    H229387   5.348   7.400   5.676  0.1785 -1.9815  0.6089
  822TIP3   OH229388   8.235   1.705   0.734 -0.6122 -0.0887  0.4039
  822TIP3    H129389   8.274   1.778   0.686  0.4303 -0.0986  1.2033
  822TIP3    H229390   8.266   1.715   0.823 -0.0660 -1.7618  0.4436
  823TIP3   OH229391   4.305   3.029   5.511  0.0012  0.2645  0.1809
  823TIP3    H129392   4.355   3.073   5.443  0.5002 -0.7339 -0.1170
  823TIP3    H229393   4.363   2.959   5.542 -0.2086  0.7109  1.6487
  824TIP3   OH229394   6.550   6.519   1.349 -0.0553  0.4153 -0.2255
  824TIP3    H129395   6.455   6.504   1.351 -0.0430  0.3506  1.4806
  824TIP3    H229396   6.562   6.584   1.280 -1.2972  0.1890 -0.6972
  825TIP3   OH229397   0.211   4.090   1.099  0.0015  0.1985  0.1215
  825TIP3    H129398   0.139   4.080   1.037 -0.9005  2.9459  0.5740
  825TIP3    H229399   0.194   4.023   1.166 -1.7751  0.3192 -0.1429
  826TIP3   OH229400   5.866   2.676   0.149  0.1397 -0.2682 -0.0661
  826TIP3    H129401   5.920   2.701   0.224 -0.4090  0.6693  0.0250
  826TIP3    H229402   5.799   2.744   0.143  0.5884  0.0578 -1.8414
  827TIP3   OH229403   3.197   4.608   7.029  0.0186 -0.5881  0.1448
  827TIP3    H129404   3.189   4.615   6.934  1.1260 -1.6556 -0.0536
  827TIP3    H229405   3.137   4.538   7.053 -1.1513  0.4796  0.4030
  828TIP3   OH229406   8.438   3.922   6.966  0.2111  1.1060 -0.6929
  828TIP3    H129407   8.458   3.829   6.954  0.0426  0.9807 -0.0139
  828TIP3    H229408   8.348   3.924   6.996  0.5119  1.4314  0.2026
  829TIP3   OH229409   6.711   1.288   6.329 -0.5653 -0.1415 -0.5152
  829TIP3    H129410   6.774   1.254   6.266 -0.3288  0.4678 -0.6088
  829TIP3    H229411   6.763   1.307   6.407 -0.6152  0.4516 -0.6240
  830TIP3   OH229412   8.206   7.218   6.141  0.1303  0.2531 -0.0712
  830TIP3    H129413   8.285   7.165   6.129  0.7178  1.1410 -0.2846
  830TIP3    H229414   8.222   7.265   6.223 -0.0099  0.7035 -0.2994
  831TIP3   OH229415   7.806   4.391   1.125  0.6914  0.2290  0.0412
  831TIP3    H129416   7.856   4.371   1.046  0.5838  0.5013 -0.0959
  831TIP3    H229417   7.866   4.444   1.178  0.2798  1.2316 -0.4693
  832TIP3   OH229418   7.341   6.243   1.010 -0.0891  0.0945 -0.4628
  832TIP3    H129419   7.247   6.255   1.019 -0.2865 -0.6243 -1.3429
  832TIP3    H229420   7.371   6.321   0.964 -0.0540  0.8797  0.8722
  833TIP3   OH229421   2.884   5.784   7.058  0.1557 -0.3655 -0.7432
  833TIP3    H129422   2.794   5.794   0.017  0.2050  0.0248 -0.7269
  833TIP3    H229423   2.897   5.854   6.994  1.0345  0.7881  0.6254
  834TIP3   OH229424   4.896   5.074   6.053  0.6591  0.0363  0.4604
  834TIP3    H129425   4.881   5.062   6.147 -1.3434 -0.8773  0.0688
  834TIP3    H229426   4.856   5.159   6.034 -1.4968 -1.0205 -0.0215
  835TIP3   OH229427   7.821   5.125   1.614 -0.2239  0.0301 -0.3603
  835TIP3    H129428   7.792   5.215   1.604 -0.6994 -0.1134 -0.3257
  835TIP3    H229429   7.810   5.107   1.708  0.4104  0.1161 -0.2678
  836TIP3   OH229430   3.330   2.843   1.161 -0.6451  0.2678  0.4489
  836TIP3    H129431   3.417   2.812   1.188 -0.9763 -1.5304 -0.4355
  836TIP3    H229432   3.272   2.813   1.230 -1.3893 -3.7530 -1.6193
  837TIP3   OH229433   1.437   7.828   0.943  0.9502 -0.3289  0.5416
  837TIP3    H129434   1.515   7.829   0.998  0.4361  0.9387  1.2841
  837TIP3    H229435   1.372   7.779   0.993  0.9181 -0.4036  0.4285
  838TIP3   OH229436   6.983   0.995   0.616 -0.1699  0.1968  0.7870
  838TIP3    H129437   6.908   1.047   0.588  0.2335  0.2195 -0.3118
  838TIP3    H229438   6.992   0.928   0.548  0.0698 -0.5473  1.5414
  839TIP3   OH229439   5.791   1.442   6.431 -0.2914 -0.1091 -0.1872
  839TIP3    H129440   5.822   1.353   6.443  0.3126  0.4223  3.1736
  839TIP3    H229441   5.718   1.434   6.368 -0.2450 -2.9222  0.0009
  840TIP3   OH229442   6.418   3.700   4.931 -0.6433 -0.7880  0.1938
  840TIP3    H129443   6.461   3.782   4.955  0.6298 -0.9960 -1.2508
  840TIP3    H229444   6.325   3.722   4.929 -0.6040 -0.1099  2.5289
  841TIP3   OH229445   2.847   0.906   0.711 -0.7689  0.2852  0.2223
  841TIP3    H129446   2.800   0.876   0.789  0.1602 -1.9577 -0.0102
  841TIP3    H229447   2.778   0.939   0.654 -1.7571 -0.4036  0.9728
  842TIP3   OH229448   0.382   7.747   6.080  0.5103  0.0071  0.6923
  842TIP3    H129449   0.384   7.709   6.168  0.0175 -0.0508  0.6797
  842TIP3    H229450   0.307   7.705   6.037  0.1278  0.7890  0.5839
  843TIP3   OH229451   0.485   7.944   0.155 -0.0606  0.5301  0.1933
  843TIP3    H129452   0.481   8.033   0.190  0.6668  0.4851  0.4074
  843TIP3    H229453   0.564   7.907   0.192 -0.6750 -0.4241  0.5740
  844TIP3   OH229454   2.235   2.906   5.144  0.3475  0.0415 -0.4136
  844TIP3    H129455   2.213   2.955   5.223  2.9998  1.4992 -0.4855
  844TIP3    H229456   2.223   2.814   5.169  2.0791  0.4028  2.0639
  845TIP3   OH229457   5.564   5.942   5.702 -0.1709 -0.0774  0.0795
  845TIP3    H129458   5.471   5.965   5.710 -0.0618  1.1027 -1.5035
  845TIP3    H229459   5.610   6.023   5.724  0.4028 -0.1207 -0.8808
  846TIP3   OH229460   7.315   3.937   6.606  0.1347  0.3724 -0.1569
  846TIP3    H129461   7.396   3.988   6.608  1.1397 -1.1303 -1.1698
  846TIP3    H229462   7.275   3.960   6.522  1.2806 -1.4524 -1.2671
  847TIP3   OH229463   5.111   6.157   5.421  0.1892  0.1368 -0.4849
  847TIP3    H129464   5.191   6.166   5.473  0.9634 -0.3114 -1.5610
  847TIP3    H229465   5.140   6.117   5.339 -1.0209  0.6901 -1.2078
  848TIP3   OH229466   4.663   7.397   0.267  0.2261  0.3595 -0.2191
  848TIP3    H129467   4.743   7.412   0.318  0.2899  1.0952 -0.5197
  848TIP3    H229468   4.678   7.445   0.185 -0.4041  0.2631 -0.3955
  849TIP3   OH229469   6.194   1.073   5.913 -0.6005 -0.1428 -0.2840
  849TIP3    H129470   6.199   0.997   5.971  0.5251  0.5786  0.6144
  849TIP3    H229471   6.120   1.054   5.855 -1.6200 -0.9788  1.2372
  850TIP3   OH229472   6.698   1.960   6.886 -0.1315  0.3811 -0.0921
  850TIP3    H129473   6.671   1.977   6.977 -0.5466 -0.9079  0.0596
  850TIP3    H229474   6.787   1.993   6.880 -0.3464  1.1063  0.5880
  851TIP3   OH229475   1.516   0.280   0.126 -0.2451  0.0746 -0.0871
  851TIP3    H129476   1.527   0.304   0.034 -0.2851  1.7030  0.3192
  851TIP3    H229477   1.428   0.243   0.130  0.2596 -1.3360 -0.9367
  852TIP3   OH229478   3.179   1.416   6.913  0.3793  0.0799  0.6375
  852TIP3    H129479   3.214   1.499   6.946 -1.1438  0.8551  0.3794
  852TIP3    H229480   3.132   1.440   6.833 -1.5512 -0.7242  1.4753
  853TIP3   OH229481   4.694   6.663   1.157  0.4746 -0.1072 -0.1406
  853TIP3    H129482   4.726   6.603   1.090 -1.9972 -2.4126  0.5893
  853TIP3    H229483   4.640   6.726   1.109 -0.7449 -1.3459 -0.4664
  854TIP3   OH229484   7.758   2.744   0.355 -0.2182  0.4477 -0.0725
  854TIP3    H129485   7.703   2.667   0.371  2.8979 -1.6308  1.4563
  854TIP3    H229486   7.795   2.729   0.267  0.8281 -0.1553  0.4522
  855TIP3   OH229487   2.398   0.878   1.028  0.1807 -0.7438  0.3546
  855TIP3    H129488   2.467   0.913   1.085 -0.2064  0.9103 -0.1333
  855TIP3    H229489   2.445   0.826   0.963  0.8112 -0.9758  0.9759
  856TIP3   OH229490   1.892   7.247   5.895 -0.0747 -0.4018  0.2894
  856TIP3    H129491   1.800   7.251   5.922 -0.5501  2.2426 -1.3806
  856TIP3    H229492   1.893   7.287   5.808  2.7718  0.2681  0.5504
  857TIP3   OH229493   2.419   7.563   6.638 -0.2490 -0.2538 -0.0289
  857TIP3    H129494   2.426   7.655   6.664  0.1013  0.0642 -1.1777
  857TIP3    H229495   2.327   7.553   6.612 -0.6474 -0.6205  1.4172
  858TIP3   OH229496   1.024   3.704   6.335 -0.0009 -0.4829  0.0407
  858TIP3    H129497   0.984   3.717   6.249  1.6827 -0.6145 -0.8073
  858TIP3    H229498   1.084   3.630   6.322  0.8361 -0.0126  1.1189
  859TIP3   OH229499   3.123   6.518   6.103 -0.7503 -0.5251 -0.5302
  859TIP3    H129500   3.047   6.524   6.045  0.6277 -3.8721 -3.0750
  859TIP3    H229501   3.106   6.441   6.157 -0.0814 -0.0287  0.4121
  860TIP3   OH229502   3.728   0.779   0.822  0.1954  0.0693 -0.1589
  860TIP3    H129503   3.780   0.722   0.878 -0.4354 -2.0553 -1.5987
  860TIP3    H229504   3.686   0.720   0.760 -1.1033  2.0592 -1.3043
  861TIP3   OH229505   3.330   5.385   5.407  0.4410  0.0020 -0.2657
  861TIP3    H129506   3.326   5.312   5.345 -1.1807 -0.1802 -0.0008
  861TIP3    H229507   3.271   5.451   5.371 -0.4303 -0.0539  0.9861
  862TIP3   OH229508   3.917   8.288   6.695  0.1909  0.1789 -0.2675
  862TIP3    H129509   3.842   8.313   6.749  0.3808 -0.0216  0.0916
  862TIP3    H229510   3.910   8.193   6.685 -0.8406  0.3954 -2.1012
  863TIP3   OH229511   1.071   2.110   6.307 -0.1343  0.8178  0.1664
  863TIP3    H129512   1.151   2.155   6.333 -1.1174  2.0147  1.2968
  863TIP3    H229513   1.013   2.118   6.383 -2.2374  2.2188 -1.4483
  864TIP3   OH229514   8.344   6.564   4.979  0.1081  0.3252  0.0760
  864TIP3    H129515   8.390   6.492   4.936 -0.8784 -0.4011  0.2158
  864TIP3    H229516   8.303   6.525   5.056 -2.3656  0.4622 -1.0687
  865TIP3   OH229517   6.092   8.267   6.202  0.0233  0.0697 -0.3728
  865TIP3    H129518   6.021   8.270   6.138 -1.3208  0.9130  1.0756
  865TIP3    H229519   6.090   8.352   6.245  0.8495 -0.4790  0.8284
  866TIP3   OH229520   1.567   1.297   5.698  0.2966  0.2481  0.3373
  866TIP3    H129521   1.595   1.295   5.606  1.6582 -0.2597  0.7418
  866TIP3    H229522   1.553   1.206   5.720  2.1155  0.1407  1.2304
  867TIP3   OH229523   1.421   1.209   5.413 -0.6812  0.6121 -0.3829
  867TIP3    H129524   1.445   1.121   5.382  1.4287  0.6956  0.8575
  867TIP3    H229525   1.474   1.268   5.360  1.0421  0.8775  1.5325
  868TIP3   OH229526   6.582   3.325   5.573 -0.1535 -0.2147  0.0478
  868TIP3    H129527   6.537   3.331   5.488 -0.1323  0.4666  0.0795
  868TIP3    H229528   6.602   3.416   5.596 -0.4654 -0.3677  0.9482
  869TIP3   OH229529   0.423   7.919   6.335 -0.3918  0.1506 -0.1983
  869TIP3    H129530   0.490   7.983   6.310  0.0737 -0.0483  0.5066
  869TIP3    H229531   0.396   7.946   6.423  1.2445 -1.7370  0.9649
  870TIP3   OH229532   3.936   5.192   6.554  0.3793  0.7349 -0.2797
  870TIP3    H129533   4.000   5.194   6.624  1.6591  1.7067 -1.4151
  870TIP3    H229534   3.978   5.141   6.484 -1.2905 -1.1410  0.0033
  871TIP3   OH229535   4.478   3.471   6.306  0.0281  0.3450 -0.2962
  871TIP3    H129536   4.544   3.405   6.328 -1.8944 -1.5135  0.1874
  871TIP3    H229537   4.486   3.482   6.211 -0.2340 -1.3359 -0.5397
  872TIP3   OH229538   2.631   2.656   6.680  0.0747  0.1086  0.1743
  872TIP3    H129539   2.725   2.649   6.694  0.2048 -0.0084 -0.7022
  872TIP3    H229540   2.606   2.573   6.638 -0.6740 -0.4617  1.6549
  873TIP3   OH229541   6.456   2.304   0.456 -0.8551 -0.4979 -0.1809
  873TIP3    H129542   6.457   2.262   0.370  1.4261 -2.2128  0.5747
  873TIP3    H229543   6.446   2.231   0.518 -1.0090  0.5415  1.0513
  874TIP3   OH229544   8.169   4.802   6.308  0.6685 -0.0911  0.1161
  874TIP3    H129545   8.120   4.720   6.313 -0.1116  0.3440 -0.3574
  874TIP3    H229546   8.194   4.820   6.399  0.1885 -0.4574  0.3245
  875TIP3   OH229547   5.554   7.687   6.638 -0.3300 -0.1890 -0.2386
  875TIP3    H129548   5.498   7.618   6.601 -0.8710 -1.0550  2.0498
  875TIP3    H229549   5.516   7.706   6.723  1.9579  0.3360  0.7346
  876TIP3   OH229550   2.411   1.414   5.106 -0.0392 -0.1308 -0.6039
  876TIP3    H129551   2.428   1.479   5.038  1.8928  0.4542  0.3671
  876TIP3    H229552   2.380   1.337   5.058 -0.5416  0.8585 -1.9447
  877TIP3   OH229553   3.375   4.391   0.678 -1.1080 -0.2676  0.7986
  877TIP3    H129554   3.457   4.394   0.728 -0.0605 -0.5167 -0.8029
  877TIP3    H229555   3.309   4.427   0.737  0.4761  1.6115  1.5454
  878TIP3   OH229556   7.144   4.865   6.309 -0.1281  0.5473  0.4221
  878TIP3    H129557   7.090   4.927   6.260  1.5397  2.0053  0.3175
  878TIP3    H229558   7.119   4.880   6.400 -1.4462 -0.3813  0.2382
  879TIP3   OH229559   0.793   6.281   6.116  0.0876 -0.2655 -0.4266
  879TIP3    H129560   0.764   6.194   6.144  0.0771 -0.3248 -0.6232
  879TIP3    H229561   0.732   6.306   6.047 -0.8916  0.5720  0.6879
  880TIP3   OH229562   7.301   5.514   1.625  0.1640  0.1144 -0.0612
  880TIP3    H129563   7.253   5.554   1.698 -0.3624 -1.3389  0.4128
  880TIP3    H229564   7.250   5.437   1.601  0.4140  0.4834 -1.8928
  881TIP3   OH229565   1.016   3.125   5.564 -0.3872 -0.3389  0.1567
  881TIP3    H129566   0.937   3.082   5.532 -1.1087  1.6124 -0.8894
  881TIP3    H229567   0.998   3.219   5.552  1.6651  0.2039  0.9186
  882TIP3   OH229568   4.146   4.447   5.501  0.0560  0.0463  0.0051
  882TIP3    H129569   4.192   4.490   5.573 -2.4271  1.5409  0.8216
  882TIP3    H229570   4.117   4.519   5.445 -0.4343 -0.9085 -0.9908
  883TIP3   OH229571   5.991   3.207   1.131 -0.4987  0.0409 -0.9113
  883TIP3    H129572   5.914   3.258   1.107 -1.6971 -0.8977  0.7247
  883TIP3    H229573   6.065   3.266   1.116 -1.5486  1.1028 -2.1350
  884TIP3   OH229574   1.731   7.391   0.986  0.4345 -0.6787 -0.7179
  884TIP3    H129575   1.791   7.464   0.968 -0.0699  0.2376  1.0612
  884TIP3    H229576   1.659   7.431   1.035 -0.5413 -2.1475 -0.8932
  885TIP3   OH229577   8.161   7.606   6.848 -0.8866 -0.5848  0.1224
  885TIP3    H129578   8.200   7.690   6.826 -0.5614 -0.7566  0.0410
  885TIP3    H229579   8.235   7.551   6.873 -1.2134 -0.4143  1.5976
  886TIP3   OH229580   8.389   5.606   0.038 -0.5632 -0.3846  0.3539
  886TIP3    H129581   8.426   5.692   0.057 -0.4168  0.0178 -1.5520
  886TIP3    H229582   8.459   5.560   7.062 -1.8853 -0.1851 -1.9269
  887TIP3   OH229583   4.736   3.067   5.827 -0.0143  0.2189 -0.0213
  887TIP3    H129584   4.679   3.126   5.776 -0.4962 -0.0269  0.2217
  887TIP3    H229585   4.740   3.108   5.913  0.3168  0.3216 -0.0848
  888TIP3   OH229586   3.897   0.661   6.730 -0.7335  0.0206 -0.5885
  888TIP3    H129587   3.822   0.602   6.721 -0.6141  0.1461 -2.7315
  888TIP3    H229588   3.863   0.734   6.781 -2.3233  0.4447 -2.1613
  889TIP3   OH229589   2.296   5.342   5.486  0.0241 -0.4039  0.3198
  889TIP3    H129590   2.238   5.329   5.411  0.0798  2.6489 -0.3777
  889TIP3    H229591   2.239   5.333   5.562 -0.4323 -1.6388 -0.1420
  890TIP3   OH229592   6.825   0.315   0.542 -0.7423 -0.3304 -0.3603
  890TIP3    H129593   6.785   0.383   0.487 -0.2390 -0.9037 -1.4527
  890TIP3    H229594   6.880   0.364   0.603 -0.4361  0.2616 -1.0950
  891TIP3   OH229595   2.190   4.711   1.052  0.3917 -0.3280  0.4260
  891TIP3    H129596   2.201   4.782   0.989  1.0279  0.2840  1.1961
  891TIP3    H229597   2.153   4.753   1.130  1.4087 -0.6754  1.1327
  892TIP3   OH229598   5.456   6.472   6.384 -0.1730  0.0289 -0.0516
  892TIP3    H129599   5.461   6.473   6.480  3.7096 -1.1503 -0.0841
  892TIP3    H229600   5.473   6.563   6.359  0.4527  0.0374  0.3752
  893TIP3   OH229601   6.927   0.116   0.684 -0.4826 -0.3032 -0.1897
  893TIP3    H129602   6.901   0.104   0.775  0.8028  0.8223  0.3692
  893TIP3    H229603   6.882   0.197   0.657  0.4171  0.2598 -0.0218
  894TIP3   OH229604   8.493   6.993   5.995 -1.0319  0.5148 -0.6793
  894TIP3    H129605   8.469   6.979   5.903 -0.9687 -1.8701 -0.3937
  894TIP3    H229606   8.426   6.946   6.044  1.0877 -1.6652  0.3124
  895TIP3   OH229607   8.384   6.641   5.605  0.7136  0.3338 -0.2851
  895TIP3    H129608   8.327   6.584   5.656  0.8158  1.5284  1.2553
  895TIP3    H229609   8.472   6.622   5.637  0.8074  0.9216 -0.1831
  896TIP3   OH229610   4.270   5.433   0.493 -0.8557  0.5591  0.4279
  896TIP3    H129611   4.206   5.488   0.447  0.0017  0.9893 -0.3077
  896TIP3    H229612   4.352   5.482   0.485 -0.4752  0.1130  1.5114
  897TIP3   OH229613   7.887   7.265   6.161 -0.0973 -0.3702  0.7925
  897TIP3    H129614   7.873   7.359   6.159  0.5630 -0.2674 -1.2275
  897TIP3    H229615   7.982   7.255   6.155 -0.2560 -1.1214 -2.0172
  898TIP3   OH229616   5.014   1.188   6.678  0.0963 -0.4027 -0.5978
  898TIP3    H129617   4.923   1.216   6.690 -0.6091 -3.0291  1.3049
  898TIP3    H229618   5.065   1.252   6.727 -1.2012 -1.0314  1.7569
  899TIP3   OH229619   5.237   0.228   5.926  0.6798 -0.1117  0.3846
  899TIP3    H129620   5.257   0.194   5.839 -1.9111  0.2526 -0.4294
  899TIP3    H229621   5.178   0.164   5.964 -0.3169  1.0098  0.7911
  900TIP3   OH229622   4.393   6.996   6.330 -0.1833 -0.2878 -0.3199
  900TIP3    H129623   4.385   7.000   6.425 -0.7763 -0.5672 -0.3554
  900TIP3    H229624   4.303   6.985   6.298  0.0325 -0.4409 -0.9001
  901TIP3   OH229625   1.072   1.712   0.736  0.2902  0.3992  0.2476
  901TIP3    H129626   1.022   1.794   0.736 -1.4600 -0.6208  0.0365
  901TIP3    H229627   1.041   1.666   0.658  0.5752 -0.8584  0.8644
  902TIP3   OH229628   0.010   5.936   1.302  0.8687  0.0243 -0.1286
  902TIP3    H129629   0.050   5.966   1.383  2.1974 -0.0329 -0.7263
  902TIP3    H229630   0.007   5.841   1.310  0.2328  0.0618  0.1751
  903TIP3   OH229631   6.941   3.292   0.204 -0.7772  0.3425  0.3684
  903TIP3    H129632   6.931   3.204   0.240 -2.1056 -0.3442 -1.4955
  903TIP3    H229633   6.862   3.339   0.232 -0.4338  0.7124  0.7277
  904TIP3   OH229634   2.148   1.334   1.183 -0.3628  0.2047 -0.0376
  904TIP3    H129635   2.237   1.308   1.157 -0.8394  0.7042 -2.3920
  904TIP3    H229636   2.162   1.399   1.252  1.1286  0.2208 -0.3087
  905TIP3   OH229637   6.072   8.434   4.919  0.6299  0.5532 -0.3656
  905TIP3    H129638   5.993   8.381   4.902  0.7060  0.5792 -0.8134
  905TIP3    H229639   6.144   8.381   4.885  0.6241  1.3060 -1.6070
  906TIP3   OH229640   3.983   7.835   5.922 -0.3112 -0.0527 -0.0538
  906TIP3    H129641   3.962   7.813   5.831 -0.0189 -0.0599 -0.1183
  906TIP3    H229642   4.071   7.801   5.936 -1.1925 -2.1155  0.9252
  907TIP3   OH229643   7.404   5.316   6.052 -0.1597  0.3973 -0.7113
  907TIP3    H129644   7.381   5.331   5.960  0.2738 -2.9392 -1.4737
  907TIP3    H229645   7.499   5.309   6.052 -0.2032 -0.2807 -0.1192
  908TIP3   OH229646   4.779   4.773   6.128 -0.3230 -0.2738  0.0649
  908TIP3    H129647   4.846   4.754   6.193  2.4409  1.6772 -1.9881
  908TIP3    H229648   4.749   4.861   6.150  1.1117  0.6779 -1.5250
  909TIP3   OH229649   1.864   0.920   6.474 -0.7613 -0.0798  0.4127
  909TIP3    H129650   1.805   0.964   6.412 -0.3012 -0.6582 -0.4429
  909TIP3    H229651   1.918   0.991   6.509  0.3299  0.0183 -1.3419
  910TIP3   OH229652   0.018   6.325   6.394  0.3386 -0.1229  0.1656
  910TIP3    H129653   8.503   6.319   6.312 -1.0710  1.5934  0.8224
  910TIP3    H229654   0.104   6.355   6.367  0.5835 -1.5838 -0.8519
  911TIP3   OH229655   5.792   4.780   0.049 -0.5119 -0.3640 -0.5576
  911TIP3    H129656   5.827   4.693   0.029  1.5107  0.2543  0.0594
  911TIP3    H229657   5.848   4.813   0.119  0.7021  2.5789 -2.6718
  912TIP3   OH229658   1.082   5.552   0.004 -0.9218 -0.5747 -0.6555
  912TIP3    H129659   1.113   5.637   0.036 -0.6016  0.1937 -2.8308
  912TIP3    H229660   1.019   5.523   0.070 -1.3764  1.5663 -0.0643
  913TIP3   OH229661   2.041   8.076   6.018  0.7541  0.1047 -0.1974
  913TIP3    H129662   2.042   8.171   6.010  1.7055  0.4289  2.5970
  913TIP3    H229663   2.131   8.050   6.001  0.8162 -0.1032  0.4100
  914TIP3   OH229664   2.037   1.161   6.463  0.2074 -0.0074 -0.1961
  914TIP3    H129665   2.115   1.192   6.508  0.7227 -0.7857 -0.5405
  914TIP3    H229666   1.975   1.233   6.471  1.1926  0.9024 -0.5209
  915TIP3   OH229667   6.881   4.312   5.689 -0.3410  0.2080 -0.0756
  915TIP3    H129668   6.886   4.299   5.594 -1.0340  0.5125 -0.1643
  915TIP3    H229669   6.969   4.291   5.721  0.2251  1.2068 -0.9164
  916TIP3   OH229670   7.582   6.617   1.874  0.3784  0.1788  0.3560
  916TIP3    H129671   7.605   6.626   1.967 -1.3315 -1.7392  1.0435
  916TIP3    H229672   7.572   6.523   1.861  1.8192  0.2813 -2.1487
  917TIP3   OH229673   1.499   0.337   6.890  0.1179  0.2802 -0.0892
  917TIP3    H129674   1.568   0.271   6.896 -0.8313 -0.7750 -0.4770
  917TIP3    H229675   1.501   0.366   6.799  1.4665  1.8554  0.4028
  918TIP3   OH229676   6.283   7.717   5.420  0.8848 -0.5974 -0.1936
  918TIP3    H129677   6.214   7.650   5.424  0.7336 -0.3787  1.4578
  918TIP3    H229678   6.342   7.695   5.492  1.3351  0.5159 -0.2069
  919TIP3   OH229679   0.480   5.604   0.269 -0.3860 -0.0962 -0.2536
  919TIP3    H129680   0.575   5.611   0.256 -0.2919  0.5603  0.7169
  919TIP3    H229681   0.451   5.544   0.200  0.9233 -1.3819  0.2712
  920TIP3   OH229682   4.172   4.989   0.916 -0.2919 -0.7466  0.1065
  920TIP3    H129683   4.193   5.012   1.007  0.1842 -1.8307  0.2814
  920TIP3    H229684   4.257   4.972   0.876 -0.5628 -1.1428 -0.3026
  921TIP3   OH229685   1.415   2.134   6.115 -0.0414 -0.6245  0.1697
  921TIP3    H129686   1.456   2.115   6.030  0.7147  0.0507  0.3667
  921TIP3    H229687   1.413   2.229   6.120 -1.2670 -0.6432  0.3652
  922TIP3   OH229688   8.452   5.700   5.809 -0.5491  0.3228  0.5534
  922TIP3    H129689   8.486   5.616   5.777 -0.0126  0.1596  1.5015
  922TIP3    H229690   8.468   5.761   5.737 -0.3494 -0.2580  0.0977
  923TIP3   OH229691   4.318   2.072   1.321  0.1111 -0.1908 -0.8055
  923TIP3    H129692   4.400   2.077   1.370 -0.6476  1.2932  0.4015
  923TIP3    H229693   4.273   1.995   1.357 -0.0190  0.3389  0.2248
  924TIP3   OH229694   5.184   4.915   1.496  0.4236  0.2977  0.7523
  924TIP3    H129695   5.143   4.855   1.558  0.8236 -0.2831  0.4677
  924TIP3    H229696   5.258   4.865   1.460  1.0062  1.1067  0.8115
  925TIP3   OH229697   4.155   7.461   5.741  0.2029 -0.1333 -0.8018
  925TIP3    H129698   4.101   7.477   5.663 -0.2716 -0.0538 -0.4596
  925TIP3    H229699   4.094   7.467   5.814  0.8509  0.9112 -0.3240
  926TIP3   OH229700   0.042   3.032   0.342  0.0313  0.4071 -0.4685
  926TIP3    H129701   8.484   3.034   0.321 -0.0457  0.4840 -0.1142
  926TIP3    H229702   0.046   3.028   0.437  0.3440 -2.6090 -0.4970
  927TIP3   OH229703   1.127   5.182   6.775  0.1789 -0.2164  0.2217
  927TIP3    H129704   1.101   5.230   6.697  2.7862 -1.3243 -1.4252
  927TIP3    H229705   1.178   5.245   6.827 -0.7084  0.2186  0.5932
  928TIP3   OH229706   0.016   2.371   0.435  0.5821  0.3793 -0.2441
  928TIP3    H129707   0.067   2.421   0.372  0.7358  0.3827 -0.1161
  928TIP3    H229708   0.046   2.281   0.424  0.2389  0.2961 -0.5409
  929TIP3   OH229709   7.925   1.989   6.078  0.1393  0.2091  0.1662
  929TIP3    H129710   7.852   2.019   6.024 -0.1886  1.2149  1.1216
  929TIP3    H229711   7.919   1.893   6.076 -0.5106  0.2572 -0.6934
  930TIP3   OH229712   3.833   4.401   0.987 -0.0171 -0.0026 -0.1907
  930TIP3    H129713   3.866   4.317   0.955  2.1699  1.2848 -1.6721
  930TIP3    H229714   3.866   4.407   1.076 -1.1273 -1.1432  0.3215
  931TIP3   OH229715   3.952   5.853   6.628  0.0286 -0.3540 -0.0647
  931TIP3    H129716   4.045   5.836   6.611 -0.3166 -0.9371 -1.5089
  931TIP3    H229717   3.929   5.792   6.698  0.6775 -0.3454  0.1656
  932TIP3   OH229718   7.420   5.497   0.297 -0.1661  0.2539  0.0786
  932TIP3    H129719   7.452   5.537   0.377 -1.6321  0.9305  0.3652
  932TIP3    H229720   7.492   5.442   0.266  0.4655  0.0825  1.7791
  933TIP3   OH229721   4.078   2.720   0.657 -0.1889 -0.5699  0.5118
  933TIP3    H129722   3.984   2.738   0.660  0.0771  2.0151 -2.0833
  933TIP3    H229723   4.107   2.731   0.748 -2.1302  0.3448  1.0806
  934TIP3   OH229724   7.604   6.501   6.124 -0.0841 -0.0194 -0.4229
  934TIP3    H129725   7.627   6.433   6.060 -2.0574 -2.0416  0.8174
  934TIP3    H229726   7.523   6.539   6.089 -1.5103 -1.5455  0.9848
  935TIP3   OH229727   1.918   3.446   0.790 -0.2627  0.3562  0.0051
  935TIP3    H129728   1.921   3.541   0.801 -0.7129  0.3007  0.6579
  935TIP3    H229729   1.963   3.430   0.707 -1.0151  1.2109 -0.5771
  936TIP3   OH229730   0.097   4.251   0.394  0.1458  0.3053 -0.5885
  936TIP3    H129731   0.182   4.270   0.435 -0.7671  2.3257  0.5312
  936TIP3    H229732   0.100   4.158   0.373  1.7018 -0.2167  1.6672
  937TIP3   OH229733   5.042   5.385   0.736 -0.5313  0.3380 -0.0989
  937TIP3    H129734   4.948   5.402   0.730 -0.2277  1.8478 -1.2257
  937TIP3    H229735   5.056   5.307   0.683 -1.5871 -2.2013  3.0037
  938TIP3   OH229736   2.361   8.200   0.095  0.9038 -0.3129 -0.3311
  938TIP3    H129737   2.439   8.215   0.149  1.5907  0.1867 -1.4210
  938TIP3    H229738   2.387   8.228   0.007 -1.2243  2.2144 -0.3125
  939TIP3   OH229739   0.592   0.925   5.985 -0.6536 -0.4519 -0.7061
  939TIP3    H129740   0.676   0.893   6.020 -1.6544 -0.7048  1.6677
  939TIP3    H229741   0.615   1.003   5.934  0.9490  0.0871  0.7543
  940TIP3   OH229742   6.469   0.061   4.750 -0.3758 -0.6924 -0.0631
  940TIP3    H129743   6.399   0.003   4.781 -2.0923  0.4465 -1.6124
  940TIP3    H229744   6.442   0.148   4.781 -0.2334 -0.0814 -1.6011
  941TIP3   OH229745   3.878   3.003   0.657 -0.0138 -0.2369 -0.1586
  941TIP3    H129746   3.784   2.984   0.660 -0.0661 -0.5588  5.0861
  941TIP3    H229747   3.883   3.094   0.628 -1.8953 -0.2937 -0.8073
  942TIP3   OH229748   5.403   7.676   0.018  0.1018  0.2892  0.1948
  942TIP3    H129749   5.354   7.696   0.098  0.2548 -0.9473  0.6253
  942TIP3    H229750   5.343   7.699   7.018  0.0414  1.6040  0.6498
  943TIP3   OH229751   8.100   3.468   0.290  0.1420  0.3329 -0.5471
  943TIP3    H129752   8.162   3.396   0.278 -0.2951 -0.0751 -0.3708
  943TIP3    H229753   8.022   3.441   0.241  0.0215  0.7488 -0.5923
  944TIP3   OH229754   2.611   7.401   0.735 -0.5049  0.2935  0.0146
  944TIP3    H129755   2.574   7.431   0.652  2.0432  1.3494 -0.8224
  944TIP3    H229756   2.646   7.314   0.716 -0.7593  0.1395  0.2484
  945TIP3   OH229757   6.565   0.071   0.597 -0.7100  0.2165  0.1938
  945TIP3    H129758   6.604   0.139   0.542  0.3488 -0.3344  0.2509
  945TIP3    H229759   6.586   0.097   0.687 -2.1138  0.9139  0.3453
  946TIP3   OH229760   0.564   6.987   1.801  0.3952 -0.3396 -0.7837
  946TIP3    H129761   0.525   6.973   1.887 -0.0019 -0.4599 -0.9806
  946TIP3    H229762   0.588   7.080   1.800 -2.3590  0.4745 -1.6318
  947TIP3   OH229763   0.184   7.577   0.379  0.3521  0.0932  0.2965
  947TIP3    H129764   0.246   7.646   0.403  0.0402  0.1878  0.8584
  947TIP3    H229765   0.133   7.614   0.307  0.9818 -0.0088 -0.2069
  948TIP3   OH229766   6.947   7.181   1.359 -0.7838  0.0439 -0.4249
  948TIP3    H129767   6.877   7.129   1.399 -1.9810  0.7647 -1.5125
  948TIP3    H229768   6.911   7.211   1.276  1.5923 -1.4054 -2.1417
  949TIP3   OH229769   6.633   7.264   0.002 -0.4033 -0.7412  0.5569
  949TIP3    H129770   6.672   7.177   0.006 -1.0815 -0.9938  2.5910
  949TIP3    H229771   6.705   7.325   0.017 -0.0103 -0.9522 -0.4135
  950TIP3   OH229772   3.315   5.095   6.975 -0.0945 -0.6877  0.6570
  950TIP3    H129773   3.352   5.029   6.918  0.8467 -0.0495  0.5157
  950TIP3    H229774   3.240   5.130   6.927 -0.3672 -1.3716  0.5760
  951TIP3   OH229775   1.389   5.720   5.900 -0.2131  0.1271  0.1113
  951TIP3    H129776   1.329   5.650   5.924 -1.2717 -0.2072 -3.1280
  951TIP3    H229777   1.339   5.800   5.917  0.1365  0.0637  1.5942
  952TIP3   OH229778   1.058   7.559   0.894  0.2607 -0.1710 -0.6971
  952TIP3    H129779   0.972   7.593   0.919  0.5989  0.4950 -0.4120
  952TIP3    H229780   1.039   7.494   0.826 -0.6687 -1.8619  1.0901
  953TIP3   OH229781   7.276   4.344   0.884  0.3688  0.3151  0.6077
  953TIP3    H129782   7.364   4.364   0.853  0.4297 -2.8566 -1.8008
  953TIP3    H229783   7.290   4.295   0.965  1.0359 -1.5244 -0.5480
  954TIP3   OH229784   7.580   5.414   5.637 -0.4165  0.1529 -0.9191
  954TIP3    H129785   7.577   5.340   5.577  0.1724  0.3861 -1.2499
  954TIP3    H229786   7.538   5.382   5.717 -0.2812 -0.4995 -1.1023
  955TIP3   OH229787   0.509   3.118   0.825  0.3346  0.3037 -0.4702
  955TIP3    H129788   0.566   3.058   0.777  0.8222  1.3693 -1.2718
  955TIP3    H229789   0.421   3.093   0.799  0.5250 -0.1332 -0.7142
  956TIP3   OH229790   1.258   2.045   7.023  0.0194 -0.1608  0.2778
  956TIP3    H129791   1.337   1.998   6.998  0.3195  0.8916 -0.8572
  956TIP3    H229792   1.186   1.990   6.992  0.3666  0.1431 -1.1372
  957TIP3   OH229793   6.244   8.280   1.322  0.3022  0.4175  0.5325
  957TIP3    H129794   6.203   8.353   1.275  0.0545 -0.4651 -0.6510
  957TIP3    H229795   6.337   8.286   1.301  0.5155  1.2240  1.6029
  958TIP3   OH229796   3.593   7.677   0.492  0.1113  0.1944 -0.1604
  958TIP3    H129797   3.676   7.725   0.483  0.1124  0.1848 -0.1994
  958TIP3    H229798   3.525   7.743   0.478  0.0756  0.6690  1.9505
  959TIP3   OH229799   4.729   3.778   0.938  0.2770 -0.4456 -0.0167
  959TIP3    H129800   4.723   3.858   0.887 -1.2204  0.3097  1.2478
  959TIP3    H229801   4.812   3.785   0.984 -0.9189  1.6939  2.0362
  960TIP3   OH229802   6.083   4.056   5.660  0.0754  0.4225  0.2275
  960TIP3    H129803   6.172   4.025   5.673  0.2925  0.2919 -1.3635
  960TIP3    H229804   6.091   4.129   5.598 -0.9324  0.2180 -0.1797
  961TIP3   OH229805   4.214   3.391   6.452  0.7117  0.2157  0.8396
  961TIP3    H129806   4.154   3.394   6.378  1.6149  0.6228  0.1057
  961TIP3    H229807   4.302   3.397   6.413  1.2226 -0.0513  1.9023
  962TIP3   OH229808   4.174   4.230   1.046  0.6004  0.2553 -0.0183
  962TIP3    H129809   4.187   4.179   1.125  0.9148 -0.1572 -0.3334
  962TIP3    H229810   4.206   4.317   1.068  1.3252 -0.0333  0.0897
  963TIP3   OH229811   5.960   7.856   5.881  0.4367 -0.2032  0.0875
  963TIP3    H129812   5.872   7.894   5.878 -0.3061 -1.8747 -1.6426
  963TIP3    H229813   6.019   7.931   5.886 -1.0480  1.0000  0.1843
  964TIP3   OH229814   0.983   5.785   6.004 -0.0206 -0.4214  0.0009
  964TIP3    H129815   0.986   5.698   6.042 -0.3464 -0.1265  0.7326
  964TIP3    H229816   0.889   5.803   5.993  0.0264 -0.0228  0.2101
  965TIP3   OH229817   4.353   4.717   1.160  0.0242  0.2919  0.5002
  965TIP3    H129818   4.360   4.623   1.144 -1.4604  0.1283  0.7294
  965TIP3    H229819   4.387   4.729   1.249 -0.8041 -0.1945  0.8930
  966TIP3   OH229820   6.832   1.943   0.082  0.3928 -0.0918  0.4910
  966TIP3    H129821   6.905   1.941   0.143  2.5546 -0.2018 -1.8964
  966TIP3    H229822   6.820   2.036   0.063  0.8645 -0.1442 -0.1116
  967TIP3   OH229823   6.924   5.252   1.694  0.0051  0.1315  0.1911
  967TIP3    H129824   6.928   5.344   1.721 -0.1796 -0.1083  1.0962
  967TIP3    H229825   6.970   5.205   1.764  0.9855 -0.3686 -0.7734
  968TIP3   OH229826   7.193   5.183   0.525 -0.0069 -0.0731 -0.2704
  968TIP3    H129827   7.178   5.272   0.554 -0.6980 -0.2148 -0.1912
  968TIP3    H229828   7.112   5.136   0.545  1.0460 -1.2391  1.6191
  969TIP3   OH229829   4.915   2.027   6.156 -0.1583  0.0706 -0.7998
  969TIP3    H129830   4.976   1.957   6.133  0.2042 -0.0070  0.3575
  969TIP3    H229831   4.890   2.066   6.072  2.7981  1.2307 -1.2534
  970TIP3   OH229832   5.955   0.924   5.824 -0.8582 -0.3673 -0.4292
  970TIP3    H129833   5.896   0.881   5.762 -0.4437 -1.4039 -0.1396
  970TIP3    H229834   5.976   0.855   5.888 -2.6087  1.0859  1.8834
  971TIP3   OH229835   4.611   5.969   5.627  0.4524 -0.3819 -0.1081
  971TIP3    H129836   4.687   6.024   5.609  2.3277 -1.9448  2.3845
  971TIP3    H229837   4.556   6.021   5.685  1.9301 -0.8411  1.7784
  972TIP3   OH229838   0.731   3.888   6.902  0.6321 -0.1283 -0.2982
  972TIP3    H129839   0.710   3.951   6.971  1.5805 -0.0342 -0.0880
  972TIP3    H229840   0.652   3.835   6.893  0.3664  0.1008  0.6004
  973TIP3   OH229841   8.017   4.052   0.156 -0.0985 -0.1266  0.2883
  973TIP3    H129842   8.050   4.138   0.133 -1.0831 -0.1726 -1.5115
  973TIP3    H229843   7.930   4.069   0.193  0.0037 -0.3200  0.6282
  974TIP3   OH229844   0.634   7.162   0.375  0.0152 -0.6268  0.2466
  974TIP3    H129845   0.656   7.139   0.285  1.9061 -0.4854  0.6299
  974TIP3    H229846   0.584   7.243   0.368  1.6564  0.3767 -0.6354
  975TIP3   OH229847   2.972   7.795   0.511  0.2624 -0.2242  0.0942
  975TIP3    H129848   3.036   7.813   0.579  0.1167  0.4112  0.0673
  975TIP3    H229849   2.889   7.826   0.547 -0.1892 -1.7649  0.4518
  976TIP3   OH229850   1.705   6.402   6.013  0.0815 -0.3445 -0.2514
  976TIP3    H129851   1.767   6.375   6.081 -0.7116  1.1266  1.1199
  976TIP3    H229852   1.679   6.491   6.038 -1.2271 -0.2573 -1.7757
  977TIP3   OH229853   7.301   7.271   1.474 -0.2534  0.3698  0.3625
  977TIP3    H129854   7.240   7.224   1.530  0.2964  0.0432  0.7040
  977TIP3    H229855   7.362   7.314   1.535 -1.8303  3.1352  0.1639
  978TIP3   OH229856   7.617   2.293   5.757  0.3804  0.0826 -0.2457
  978TIP3    H129857   7.659   2.336   5.831  3.2209  0.1832 -1.7805
  978TIP3    H229858   7.670   2.215   5.742 -1.6343 -1.2771 -0.6969
  979TIP3   OH229859   0.900   5.079   5.730  0.1380 -0.3870 -0.0425
  979TIP3    H129860   0.828   5.142   5.719  0.6770  0.3398  0.5295
  979TIP3    H229861   0.939   5.073   5.643 -0.2363 -0.3308 -0.2196
  980TIP3   OH229862   6.959   2.367   0.440  0.8306  0.6532 -0.2218
  980TIP3    H129863   6.978   2.305   0.369 -0.1046  1.5075 -1.2576
  980TIP3    H229864   6.880   2.331   0.481 -1.2528  2.3471 -2.4234
  981TIP3   OH229865   0.614   3.005   6.974 -0.2636 -0.5967 -0.4617
  981TIP3    H129866   0.621   2.919   7.015  0.5438 -0.2477  0.1816
  981TIP3    H229867   0.696   3.015   6.925 -0.7744 -0.5882 -1.3157
  982TIP3   OH229868   3.274   7.192   6.370  0.0718 -0.4038  0.0782
  982TIP3    H129869   3.344   7.238   6.324  0.9998 -2.3319 -0.5417
  982TIP3    H229870   3.233   7.137   6.303 -0.4099 -1.1459  0.9601
  983TIP3   OH229871   1.100   2.725   5.191 -0.0371  0.5767 -0.4268
  983TIP3    H129872   1.035   2.689   5.132 -0.2668 -0.5915  0.5115
  983TIP3    H229873   1.139   2.798   5.142 -1.1939  0.5362 -1.4530
  984TIP3   OH229874   7.872   8.223   6.350 -0.8377 -0.2182  0.4841
  984TIP3    H129875   7.809   8.295   6.348 -0.1702  0.3712  0.3633
  984TIP3    H229876   7.818   8.144   6.351 -1.5961  0.2903  1.4492
  985TIP3   OH229877   6.000   8.283   0.986  0.2554 -0.1022 -0.2166
  985TIP3    H129878   6.029   8.194   1.005  1.6722  0.1295 -1.1078
  985TIP3    H229879   6.069   8.339   1.023 -0.7337  0.6465  0.5439
  986TIP3   OH229880   0.622   1.465   1.368 -0.1294  0.3008  0.7383
  986TIP3    H129881   0.656   1.376   1.366  1.3998  0.7735 -3.0434
  986TIP3    H229882   0.649   1.500   1.453  0.0365 -2.4843  1.9256
  987TIP3   OH229883   7.577   4.839   5.729 -1.0277  0.4106 -0.0063
  987TIP3    H129884   7.561   4.877   5.642  0.2400  1.7678  0.3160
  987TIP3    H229885   7.554   4.909   5.790  1.0021  0.5760  0.6286
  988TIP3   OH229886   6.073   0.652   0.033 -0.2899 -0.0963  0.6426
  988TIP3    H129887   6.121   0.734   0.041  0.3435 -0.5837  2.2940
  988TIP3    H229888   6.002   0.672   7.042 -0.0406  1.6293  0.8521
  989TIP3   OH229889   4.562   7.487   6.705  0.5723 -0.8563 -0.0492
  989TIP3    H129890   4.527   7.454   6.788  3.6250 -0.0013  1.7698
  989TIP3    H229891   4.522   7.573   6.695  0.9925 -0.4869  1.2074
  990TIP3   OH229892   0.313   0.629   1.575 -0.5276  0.2922 -0.3719
  990TIP3    H129893   0.249   0.671   1.632 -0.2057 -0.5920  0.6797
  990TIP3    H229894   0.398   0.656   1.609 -0.3306  0.7629 -1.2192
  991TIP3   OH229895   3.516   5.114   6.419  0.2332 -0.4482  0.1196
  991TIP3    H129896   3.539   5.055   6.491  1.9580 -1.7371 -1.3862
  991TIP3    H229897   3.558   5.197   6.442  0.8288 -0.8636  0.5778
  992TIP3   OH229898   7.397   5.445   2.431 -0.2010  0.0183  0.3217
  992TIP3    H129899   7.351   5.437   2.514 -3.6500  1.1027 -1.3006
  992TIP3    H229900   7.435   5.359   2.416  0.0307 -0.3683  2.6807
  993TIP3   OH229901   4.708   0.865   6.966 -0.2413 -0.0684 -0.5442
  993TIP3    H129902   4.646   0.815   6.913  0.4920 -0.7192 -0.7939
  993TIP3    H229903   4.776   0.802   6.990  0.9174  0.8939 -1.1959
  994TIP3   OH229904   0.848   8.028   6.828 -0.3067 -0.2376  0.3619
  994TIP3    H129905   0.837   7.935   6.848 -2.2833 -0.1901 -0.2856
  994TIP3    H229906   0.810   8.038   6.741  0.4373  1.0826  0.1740
  995TIP3   OH229907   6.295   6.922   5.113  0.0703 -0.1528 -0.0458
  995TIP3    H129908   6.253   6.837   5.126 -1.0882  0.4774  0.4240
  995TIP3    H229909   6.318   6.923   5.020 -1.6312 -0.2307 -0.4991
  996TIP3   OH229910   6.943   0.906   6.305 -0.0975 -0.8576 -0.4433
  996TIP3    H129911   6.904   0.937   6.386  0.0121 -3.0664  0.5133
  996TIP3    H229912   6.870   0.899   6.244 -0.0998  1.3568 -0.8060
  997TIP3   OH229913   6.885   7.143   0.334 -0.0082 -0.5046  0.3148
  997TIP3    H129914   6.941   7.142   0.256  0.0623 -1.4062  0.3628
  997TIP3    H229915   6.802   7.108   0.305 -0.3119  0.1073  0.4244
  998TIP3   OH229916   6.151   2.591   6.576 -0.6867 -0.0319 -0.0805
  998TIP3    H129917   6.183   2.574   6.665  3.0229 -0.2220 -1.3160
  998TIP3    H229918   6.124   2.504   6.544 -0.3604 -0.2552  0.2404
  999TIP3   OH229919   8.389   4.873   6.139 -0.1758  0.5535  0.0977
  999TIP3    H129920   8.396   4.968   6.139  0.8236  0.4892 -0.1025
  999TIP3    H229921   8.295   4.856   6.150 -0.7630  1.5730 -2.5738
 1000TIP3   OH229922   8.254   0.455   1.737 -0.8286  0.6253  0.8131
 1000TIP3    H129923   8.250   0.511   1.814 -1.9740 -0.4083  1.5423
 1000TIP3    H229924   8.178   0.481   1.685 -0.3694  0.9402  0.2873
 1001TIP3   OH229925   0.755   2.936   6.088  0.2199  0.5203  0.0687
 1001TIP3    H129926   0.668   2.972   6.069  0.5367  1.6158  0.6530
 1001TIP3    H229927   0.784   2.982   6.167  2.0127  1.3392 -1.0098
 1002TIP3   OH229928   1.305   0.001   1.017  0.2977  0.2308  0.4380
 1002TIP3    H129929   1.348   0.053   0.949  0.9480 -0.6328  0.1735
 1002TIP3    H229930   1.317   0.053   1.097 -0.7716  1.4139 -0.1377
 1003TIP3   OH229931   5.988   0.842   0.691 -0.1609 -0.5335 -0.3508
 1003TIP3    H129932   6.031   0.896   0.757  0.7013  0.6954 -1.8354
 1003TIP3    H229933   5.970   0.759   0.735  1.7444 -0.3049  1.0008
 1004TIP3   OH229934   5.742   1.607   0.661 -0.3054  0.0916 -0.7003
 1004TIP3    H129935   5.709   1.518   0.653  0.2603 -0.2362  0.4316
 1004TIP3    H229936   5.734   1.643   0.573 -1.2880 -0.8035 -0.9993
 1005TIP3   OH229937   3.939   2.377   1.423 -0.3792 -0.7783  0.4186
 1005TIP3    H129938   3.992   2.321   1.479  0.9639  1.7800  1.8268
 1005TIP3    H229939   3.899   2.440   1.482 -0.5962  0.7326 -1.2537
 1006TIP3   OH229940   1.299   5.967   6.840  0.7254  0.1672  0.5941
 1006TIP3    H129941   1.306   6.013   6.924 -1.5427  0.6428  0.5881
 1006TIP3    H229942   1.256   6.029   6.782 -0.4229 -1.1754 -0.0572
 1007TIP3   OH229943   7.186   7.369   0.817  0.6653  0.5166 -0.1074
 1007TIP3    H129944   7.093   7.369   0.840  0.7090  0.1459  0.0850
 1007TIP3    H229945   7.195   7.297   0.754  0.9978 -0.1358  0.6559
 1008TIP3   OH229946   7.349   5.038   5.540 -0.3804  0.7182  0.6256
 1008TIP3    H129947   7.429   4.991   5.514 -1.4357 -0.6518 -0.3111
 1008TIP3    H229948   7.347   5.115   5.484  0.0472  0.5121  0.3232
 1009TIP3   OH229949   1.699   5.640   1.085 -0.3391 -0.1113 -0.4431
 1009TIP3    H129950   1.668   5.665   0.998 -0.7393  0.2270 -0.2074
 1009TIP3    H229951   1.661   5.705   1.144  1.3916  0.7499 -0.2121
 1010TIP3   OH229952   7.625   6.226   6.329  0.0738  0.0899 -0.5405
 1010TIP3    H129953   7.547   6.223   6.274 -1.1670 -1.5308  1.1628
 1010TIP3    H229954   7.601   6.283   6.402 -0.0752 -1.4452  0.6711
 1011TIP3   OH229955   3.606   3.769   0.003  0.8099  0.0745  0.0756
 1011TIP3    H129956   3.647   3.785   0.088  0.0214  1.5537  0.2302
 1011TIP3    H229957   3.644   3.687   7.043  1.5020 -0.2226  1.6145
 1012TIP3   OH229958   2.322   5.538   6.942  0.0801  0.8049  0.1310
 1012TIP3    H129959   2.268   5.492   7.006 -0.3204 -0.0733 -0.8135
 1012TIP3    H229960   2.259   5.574   6.879  0.4857  1.3252  0.0175
 1013TIP3   OH229961   5.926   4.760   6.525  0.1250 -0.5028  0.7304
 1013TIP3    H129962   5.962   4.681   6.484 -1.1385  0.0544 -1.5975
 1013TIP3    H229963   5.833   4.741   6.536  0.0911  0.1137  1.6098
 1014TIP3   OH229964   0.818   0.715   6.279 -0.6459  0.4853 -0.0505
 1014TIP3    H129965   0.854   0.749   6.197  0.1471  0.5166  0.3000
 1014TIP3    H229966   0.881   0.744   6.346  0.6872 -2.5241  0.1521
 1015TIP3   OH229967   0.812   7.841   6.315 -0.3378  0.6653  0.3586
 1015TIP3    H129968   0.778   7.795   6.239  0.2804 -0.5928  0.8203
 1015TIP3    H229969   0.763   7.805   6.389  1.2766 -0.5176  0.9214
 1016TIP3   OH229970   3.139   6.404   0.511  0.6504  0.1090 -0.4913
 1016TIP3    H129971   3.060   6.385   0.562 -1.3534  1.4397 -2.8519
 1016TIP3    H229972   3.211   6.372   0.565 -1.4865 -1.2810  1.7557
 1017TIP3   OH229973   4.143   1.829   6.376 -1.1206  0.1601 -0.2940
 1017TIP3    H129974   4.145   1.891   6.449  1.0584 -0.9073  0.6355
 1017TIP3    H229975   4.101   1.877   6.305 -1.0691  2.0954  0.9210
 1018TIP3   OH229976   0.203   6.544   0.248  0.3898 -0.3055  0.0436
 1018TIP3    H129977   0.287   6.499   0.236  1.4244  1.5980 -0.2847
 1018TIP3    H229978   0.222   6.612   0.313 -0.9524  0.0204  0.1086
 1019TIP3   OH229979   7.982   3.830   0.802  0.0601  0.6863  0.0169
 1019TIP3    H129980   8.030   3.829   0.719 -1.7985  2.5584 -1.1835
 1019TIP3    H229981   8.045   3.866   0.865  1.6657 -1.2457 -0.3956
 1020TIP3   OH229982   4.581   2.577   6.276 -0.7619  0.1310  0.0015
 1020TIP3    H129983   4.579   2.663   6.318  1.8868  0.2122  0.1476
 1020TIP3    H229984   4.612   2.594   6.187 -1.1154 -0.5813 -0.2705
 1021TIP3   OH229985   6.289   2.900   6.762  0.0741  0.2235 -0.1227
 1021TIP3    H129986   6.326   2.940   6.684  1.3952  0.2622  0.4909
 1021TIP3    H229987   6.194   2.903   6.749  0.1926  2.1088 -0.7920
 1022TIP3   OH229988   7.699   8.136   0.778 -0.5079  0.4892  0.2188
 1022TIP3    H129989   7.623   8.150   0.835 -0.5610  1.2741 -0.0343
 1022TIP3    H229990   7.716   8.042   0.783 -0.3713  0.5840  1.6985
 1023TIP3   OH229991   2.920   1.676   5.919  0.1008 -0.5431 -0.9033
 1023TIP3    H129992   2.904   1.658   5.827  0.7093  1.1434 -1.3795
 1023TIP3    H229993   2.835   1.666   5.961 -0.5711  0.4099 -1.9809
 1024TIP3   OH229994   7.736   2.164   2.071 -0.4741  0.3323 -0.0487
 1024TIP3    H129995   7.692   2.081   2.088 -0.3107  0.2215 -0.1518
 1024TIP3    H229996   7.676   2.212   2.014 -0.4662  0.1839 -0.1852
 1025TIP3   OH229997   2.210   5.459   0.714 -0.8594 -0.4728 -0.2355
 1025TIP3    H129998   2.265   5.527   0.675 -1.4772 -0.5262 -1.2397
 1025TIP3    H229999   2.184   5.404   0.640  0.4506 -2.4328  0.6561
 1026TIP3   OH230000   0.223   5.972   5.456 -0.0473  0.0255  0.7149
 1026TIP3    H130001   0.180   5.934   5.379 -1.2317  2.3829  0.1057
 1026TIP3    H230002   0.312   5.937   5.453 -0.7598 -1.9106 -0.2552
 1027TIP3   OH230003   0.495   2.686   6.182  0.2054  0.7578  0.1499
 1027TIP3    H130004   0.462   2.657   6.097  0.0031  2.6697 -0.4788
 1027TIP3    H230005   0.590   2.675   6.175  0.1908  0.8826 -0.3232
 1028TIP3   OH230006   6.365   6.013   0.714  0.1866 -0.0946 -0.0564
 1028TIP3    H130007   6.331   6.061   0.789  3.2870 -0.7400  1.9643
 1028TIP3    H230008   6.373   5.923   0.745  2.1021 -0.2659 -0.8797
 1029TIP3   OH230009   3.707   1.102   6.961 -0.2850 -0.1681  0.1531
 1029TIP3    H130010   3.708   1.183   6.911  2.1667  0.3919  1.0083
 1029TIP3    H230011   3.665   1.124   7.044  0.4174  0.2624  0.4005
 1030TIP3   OH230012   3.320   6.091   6.754 -0.4146 -0.1989 -0.0033
 1030TIP3    H130013   3.372   6.019   6.718  2.2584  1.2173  0.7682
 1030TIP3    H230014   3.346   6.167   6.703 -2.7048  0.4076 -0.3799
 1031TIP3   OH230015   1.906   8.147   1.079 -0.9701  0.6733  0.1390
 1031TIP3    H130016   1.901   8.189   0.993 -0.8965  0.5461  0.0725
 1031TIP3    H230017   1.859   8.207   1.137  0.0632  1.3980  0.2534
 1032TIP3   OH230018   7.247   7.759   6.411  0.3534 -0.0611 -0.7203
 1032TIP3    H130019   7.160   7.769   6.449  0.6818  0.4748 -0.0901
 1032TIP3    H230020   7.272   7.669   6.433  0.3388  0.0854 -0.0899
 1033TIP3   OH230021   6.067   0.200   5.545  0.1188  0.2956 -0.3333
 1033TIP3    H130022   5.989   0.171   5.594 -0.3948  2.0076 -0.0941
 1033TIP3    H230023   6.036   0.212   5.456  0.4600 -0.3496 -0.5470
 1034TIP3   OH230024   7.149   4.997   1.509 -0.7470 -0.0672  0.6468
 1034TIP3    H130025   7.075   4.937   1.497  0.0610 -0.9786  0.0659
 1034TIP3    H230026   7.189   4.969   1.591 -0.2661 -0.4521  0.2881
 1035TIP3   OH230027   0.377   3.293   1.396  0.2543 -0.2507  0.1471
 1035TIP3    H130028   0.432   3.291   1.318 -0.4890  2.1799 -0.5208
 1035TIP3    H230029   0.367   3.201   1.420 -0.4610 -1.2354 -3.3092
 1036TIP3   OH230030   4.811   3.740   5.220  0.9539 -0.1734  0.3015
 1036TIP3    H130031   4.861   3.821   5.213  0.4392  0.2870  1.6943
 1036TIP3    H230032   4.735   3.754   5.164  1.3057 -0.0613 -0.1621
 1037TIP3   OH230033   5.763   0.637   6.252  0.4175 -0.3421  0.4047
 1037TIP3    H130034   5.718   0.680   6.180 -3.9652 -2.9034  1.2343
 1037TIP3    H230035   5.761   0.701   6.323 -0.7097  0.1487 -0.0413
 1038TIP3   OH230036   1.729   6.288   5.545  0.3917  0.0354 -0.0578
 1038TIP3    H130037   1.725   6.193   5.533  1.0726 -0.2093  1.4001
 1038TIP3    H230038   1.817   6.312   5.517 -0.6189  0.6878 -2.9537
 1039TIP3   OH230039   3.186   0.153   5.537  0.1255  0.0770  0.1993
 1039TIP3    H130040   3.208   0.115   5.623  1.7788  1.4005  0.4191
 1039TIP3    H230041   3.252   0.117   5.478  1.0010  1.6203  0.1802
 1040TIP3   OH230042   7.894   7.286   0.158  0.1272 -0.3211  0.1734
 1040TIP3    H130043   7.930   7.223   0.095  0.5578 -0.8970  0.9761
 1040TIP3    H230044   7.864   7.359   0.104 -1.2159 -1.5813 -0.8753
 1041TIP3   OH230045   7.451   2.803   1.814  0.1080  0.6741  0.3358
 1041TIP3    H130046   7.527   2.861   1.820 -0.2879  1.6038 -2.1590
 1041TIP3    H230047   7.377   2.857   1.842  0.3042 -0.3001  2.9874
 1042TIP3   OH230048   1.186   0.451   6.575  0.4277  0.0459  0.2798
 1042TIP3    H130049   1.250   0.485   6.637 -0.1527 -0.3323  1.0973
 1042TIP3    H230050   1.212   0.361   6.559  0.4631  0.0832  0.1180
 1043TIP3   OH230051   7.934   7.561   1.333  0.6973  0.2841 -0.0274
 1043TIP3    H130052   7.942   7.654   1.312  0.8528  0.6542  1.5836
 1043TIP3    H230053   7.918   7.558   1.427 -1.6375 -1.2124 -0.3730
 1044TIP3   OH230054   0.881   2.920   0.158  0.0412 -0.1302  0.3674
 1044TIP3    H130055   0.925   2.968   0.089  0.2049  1.7114  1.6670
 1044TIP3    H230056   0.945   2.856   0.188 -0.3875 -1.6819 -1.7983
 1045TIP3   OH230057   5.108   8.198   6.520 -0.2518  0.2576 -0.1314
 1045TIP3    H130058   5.056   8.253   6.461 -0.2929  0.3737  0.0118
 1045TIP3    H230059   5.042   8.153   6.574 -0.1862  1.6353  1.1693
 1046TIP3   OH230060   1.807   3.783   0.308 -0.1277 -0.2310 -0.4945
 1046TIP3    H130061   1.711   3.779   0.303 -0.2551  1.7642 -0.6898
 1046TIP3    H230062   1.825   3.802   0.400  0.0361  0.0142 -0.5773
 1047TIP3   OH230063   7.413   6.825   1.768  0.2416  0.9610 -0.6559
 1047TIP3    H130064   7.342   6.773   1.730 -0.0812  0.4656  0.5696
 1047TIP3    H230065   7.458   6.764   1.827  1.1474  1.5138 -0.7533
 1048TIP3   OH230066   2.961   2.262   6.697 -0.1972 -0.3466  0.4345
 1048TIP3    H130067   2.880   2.230   6.656  0.2898 -2.2684  0.8772
 1048TIP3    H230068   2.956   2.231   6.787  0.9193 -0.2594  0.5368
 1049TIP3   OH230069   3.143   6.506   0.859 -0.1659  0.0231  1.1154
 1049TIP3    H130070   3.108   6.544   0.940 -1.6055  2.0830 -0.3627
 1049TIP3    H230071   3.071   6.456   0.823  0.7179 -1.5283  1.4360
 1050TIP3   OH230072   1.880   6.546   5.257  0.2685  0.3797  1.0096
 1050TIP3    H130073   1.823   6.496   5.200 -0.8646  1.4989  1.1264
 1050TIP3    H230074   1.924   6.480   5.311  2.0576 -0.7938 -1.6810
 1051TIP3   OH230075   1.568   3.989   6.229  0.5766  0.5755 -0.5766
 1051TIP3    H130076   1.511   4.033   6.166 -0.1261 -1.3073 -1.3542
 1051TIP3    H230077   1.519   3.911   6.255  1.8229  0.1317  0.5744
 1052TIP3   OH230078   4.154   4.145   1.744  0.5305 -0.5287 -0.6548
 1052TIP3    H130079   4.146   4.074   1.681 -0.3966 -0.9286 -0.1082
 1052TIP3    H230080   4.123   4.223   1.697 -0.4436 -0.8783 -0.6205
 1053TIP3   OH230081   5.691   2.453   6.884  0.4773  0.3459  0.1989
 1053TIP3    H130082   5.777   2.451   6.843  0.4794  0.2825  0.2064
 1053TIP3    H230083   5.647   2.529   6.845 -0.1826 -0.7347 -1.2769
 1054TIP3   OH230084   0.951   6.650   1.718  0.2966  0.4656  0.5734
 1054TIP3    H130085   0.885   6.593   1.679  2.2763 -1.1931 -0.5742
 1054TIP3    H230086   0.901   6.720   1.760 -2.1601 -0.8830  0.0766
 1055TIP3   OH230087   3.274   5.383   1.206 -0.3064 -0.6454  0.5838
 1055TIP3    H130088   3.349   5.355   1.155 -0.2829  1.2576 -0.5282
 1055TIP3    H230089   3.296   5.360   1.296  2.0098  0.5710  0.4125
 1056TIP3   OH230090   2.356   1.948   5.236 -0.0184  0.0466 -0.1162
 1056TIP3    H130091   2.290   2.015   5.256 -0.5556 -0.6842  0.6198
 1056TIP3    H230092   2.349   1.934   5.142 -0.9762 -0.0914 -0.0263
 1057TIP3   OH230093   5.552   7.268   0.049 -0.0276 -0.1520  0.3669
 1057TIP3    H130094   5.486   7.325   0.011 -1.2710  0.0457  2.6316
 1057TIP3    H230095   5.524   7.179   0.025  0.5188  0.0216 -1.0382
 1058TIP3   OH230096   6.347   0.383   0.183  0.1647  0.0739 -0.3013
 1058TIP3    H130097   6.439   0.369   0.161  0.4397 -1.1180  1.3426
 1058TIP3    H230098   6.298   0.336   0.115  0.8486 -0.7895 -0.2192
 1059TIP3   OH230099   7.670   4.600   0.930 -0.2503  0.3823  0.2818
 1059TIP3    H130100   7.644   4.641   0.848  1.3786  3.3231  1.0679
 1059TIP3    H230101   7.759   4.568   0.914 -0.9809 -1.7040  0.1149
 1060TIP3   OH230102   2.965   6.617   1.040 -0.2014  0.0854 -0.0530
 1060TIP3    H130103   2.932   6.707   1.043  0.0731  0.1771  0.3367
 1060TIP3    H230104   2.947   6.582   1.128  0.3990  0.0195  0.0517
 1061TIP3   OH230105   1.009   3.900   0.576 -1.0979  0.2454 -0.0030
 1061TIP3    H130106   1.088   3.887   0.628 -0.1953 -2.0081 -1.7501
 1061TIP3    H230107   0.939   3.907   0.641  0.3273  0.7550  1.5537
 1062TIP3   OH230108   3.014   5.772   0.297  0.1629 -0.2560 -0.3919
 1062TIP3    H130109   2.958   5.759   0.221  1.1731 -0.7836 -1.0697
 1062TIP3    H230110   2.955   5.761   0.372 -0.8902  0.5059 -1.0799
 1063TIP3   OH230111   4.266   0.509   1.612  0.0694  0.3223  0.6061
 1063TIP3    H130112   4.181   0.554   1.614  0.6847  1.4972  1.0059
 1063TIP3    H230113   4.245   0.420   1.581 -1.1414  0.9438 -0.4758
 1064TIP3   OH230114   1.024   0.106   0.586  0.3324 -0.6680  0.0557
 1064TIP3    H130115   1.079   0.139   0.658 -1.0251 -0.5822  1.1073
 1064TIP3    H230116   0.944   0.160   0.591 -0.4550 -1.7451 -0.4700
 1065TIP3   OH230117   0.022   8.459   6.243  0.0055  0.2729  0.2731
 1065TIP3    H130118   0.027   8.519   6.168  1.0001 -1.9215 -1.5513
 1065TIP3    H230119   0.111   8.425   6.252  0.1562  1.1797  3.1707
 1066TIP3   OH230120   8.247   6.484   5.795 -0.7578 -0.0897 -0.0635
 1066TIP3    H130121   8.158   6.502   5.763  0.6160  1.1817 -3.5876
 1066TIP3    H230122   8.263   6.393   5.769 -0.5572  0.1112 -0.6456
 1067TIP3   OH230123   3.703   1.807   0.960 -0.4939 -0.5996 -0.1366
 1067TIP3    H130124   3.627   1.807   1.018 -0.2724  1.1461  0.1937
 1067TIP3    H230125   3.778   1.807   1.019 -0.2665  0.9284 -0.3827
 1068TIP3   OH230126   5.128   3.418   1.685  0.1625  0.0892  0.0775
 1068TIP3    H130127   5.160   3.335   1.719 -0.8389 -0.1839  0.3853
 1068TIP3    H230128   5.043   3.398   1.647 -0.2463  1.0299  0.4520
 1069TIP3   OH230129   1.777   1.070   5.976 -0.0927 -0.5769 -0.1316
 1069TIP3    H130130   1.787   1.153   6.024  0.5192 -1.5340  1.5002
 1069TIP3    H230131   1.855   1.020   6.000 -1.2311 -2.2354  0.2351
 1070TIP3   OH230132   5.614   6.336   0.574 -0.2229 -0.1816 -0.1999
 1070TIP3    H130133   5.544   6.271   0.566 -0.8078  0.4403 -0.1594
 1070TIP3    H230134   5.622   6.351   0.668  0.2611 -0.5595 -0.1737
 1071TIP3   OH230135   0.474   4.638   0.883 -0.5454  0.7347  0.3946
 1071TIP3    H130136   0.524   4.557   0.878  1.6006  1.9424  1.0307
 1071TIP3    H230137   0.476   4.663   0.975 -2.6367  0.6984  0.4999
 1072TIP3   OH230138   0.430   8.328   6.729  0.8052  0.0113 -0.0320
 1072TIP3    H130139   0.520   8.323   6.762  0.5810 -0.3330  0.5441
 1072TIP3    H230140   0.392   8.404   6.774  1.4086  1.4107 -1.8024
 1073TIP3   OH230141   8.468   7.270   5.675  0.3662  0.2319  0.4062
 1073TIP3    H130142   0.024   7.251   5.654  0.4685 -1.2013  1.9469
 1073TIP3    H230143   8.438   7.325   5.604  1.5804 -1.6925 -1.7224
 1074TIP3   OH230144   0.711   1.091   6.914  0.4751  0.0801  0.1723
 1074TIP3    H130145   0.632   1.135   6.883  1.6970  0.6838 -2.3686
 1074TIP3    H230146   0.736   1.033   6.843  1.2816 -1.6124  1.7381
 1075TIP3   OH230147   3.578   5.634   1.202 -0.8852 -0.8164 -0.1096
 1075TIP3    H130148   3.640   5.561   1.202 -0.2091 -0.2937  1.0465
 1075TIP3    H230149   3.529   5.623   1.284 -0.8606 -0.0727  0.0143
 1076TIP3   OH230150   0.992   0.117   6.451  0.7728 -0.0142 -0.1521
 1076TIP3    H130151   1.061   0.052   6.463 -0.3855 -1.4736 -1.0704
 1076TIP3    H230152   0.929   0.098   6.520  0.3829  0.0921 -0.4785
 1077TIP3   OH230153   6.936   6.347   4.972  0.4795 -0.0579 -0.7868
 1077TIP3    H130154   6.897   6.394   5.046  1.7111  0.9825 -0.7622
 1077TIP3    H230155   6.911   6.255   4.986  0.0519  0.2349  0.4869
 1078TIP3   OH230156   5.194   7.860   1.100  0.1734 -0.5815 -0.0448
 1078TIP3    H130157   5.152   7.884   1.017  0.5609 -0.5193 -0.2274
 1078TIP3    H230158   5.288   7.869   1.082  0.2740 -1.0144  0.2675
 1079TIP3   OH230159   7.382   3.656   1.006  0.1601 -0.6315  0.3010
 1079TIP3    H130160   7.372   3.749   1.027 -1.4783 -0.7439  0.2104
 1079TIP3    H230161   7.452   3.653   0.942 -1.2453  0.8532 -1.4352
 1080TIP3   OH230162   7.381   4.688   6.953  0.1652 -0.0363  0.9456
 1080TIP3    H130163   7.391   4.753   7.023  0.5104 -0.8323  1.6384
 1080TIP3    H230164   7.470   4.664   6.929  0.1329  1.4899 -1.0028
 1081TIP3   OH230165   7.845   2.823   6.584 -0.3086 -0.1680 -0.1502
 1081TIP3    H130166   7.900   2.822   6.663 -0.1251 -0.1851 -0.2763
 1081TIP3    H230167   7.899   2.779   6.518 -0.0495  0.7470 -0.5587
 1082TIP3   OH230168   4.161   8.054   6.362 -0.3315  0.0950 -0.4818
 1082TIP3    H130169   4.229   8.096   6.308 -0.7803 -0.1807 -1.2696
 1082TIP3    H230170   4.187   8.074   6.452  1.0248 -0.3386 -0.7482
 1083TIP3   OH230171   6.719   8.009   6.402 -0.4405  0.6788  0.0718
 1083TIP3    H130172   6.799   8.013   6.349 -0.7037 -0.2583 -0.4337
 1083TIP3    H230173   6.749   7.978   6.487 -0.2605  0.3086 -0.1223
 1084TIP3   OH230174   4.080   2.591   1.117 -0.0255  0.1613  0.0283
 1084TIP3    H130175   4.099   2.501   1.089  0.8003 -0.2305  1.6923
 1084TIP3    H230176   3.984   2.593   1.124 -0.0504 -0.6281  0.0832
 1085TIP3   OH230177   0.816   2.656   1.478 -0.0162  0.2934 -0.7219
 1085TIP3    H130178   0.848   2.619   1.396  0.0483 -1.7323  0.1444
 1085TIP3    H230179   0.729   2.618   1.489 -0.6323  1.6849 -0.5215
 1086TIP3   OH230180   0.616   4.827   6.686  0.4863  0.0066 -0.0295
 1086TIP3    H130181   0.592   4.776   6.764 -0.2302 -0.3868 -0.4970
 1086TIP3    H230182   0.555   4.900   6.685  0.6323  0.1278 -0.1131
 1087TIP3   OH230183   2.479   4.543   6.494 -0.6454  0.5028 -0.0662
 1087TIP3    H130184   2.453   4.451   6.498 -0.3525  0.4544  2.4575
 1087TIP3    H230185   2.396   4.591   6.494 -0.8241  0.2524  1.8193
 1088TIP3   OH230186   3.870   7.606   2.112  0.2103 -0.4742  0.1683
 1088TIP3    H130187   3.943   7.624   2.052 -0.9060  0.4512 -0.9531
 1088TIP3    H230188   3.864   7.684   2.167  0.9670 -1.1524  1.2634
 1089TIP3   OH230189   4.647   6.293   6.617 -0.5985 -0.3419  0.3860
 1089TIP3    H130190   4.557   6.307   6.648 -0.4064 -0.4640  1.0160
 1089TIP3    H230191   4.696   6.270   6.696 -0.1893 -1.1075 -0.0779
 1090TIP3   OH230192   5.366   3.864   1.406  0.7711 -0.0076 -0.8138
 1090TIP3    H130193   5.405   3.792   1.457  0.5279  0.5651  0.2089
 1090TIP3    H230194   5.396   3.848   1.317  1.0110 -1.1869 -0.5468
 1091TIP3   OH230195   6.918   0.980   1.164  0.1564  0.1839 -0.2992
 1091TIP3    H130196   6.982   1.038   1.204  1.8336 -2.0034  0.3861
 1091TIP3    H230197   6.897   1.022   1.080  1.3160  1.7149  0.1248
 1092TIP3   OH230198   6.444   4.269   0.903  0.1511  0.3017  0.3030
 1092TIP3    H130199   6.537   4.258   0.921  0.4620  1.1924 -0.6652
 1092TIP3    H230200   6.404   4.276   0.989  0.6511 -2.3144  0.8161
 1093TIP3   OH230201   4.202   3.350   6.071  0.1848 -0.1487  0.5379
 1093TIP3    H130202   4.120   3.337   6.119  0.1151 -0.1787  0.4117
 1093TIP3    H230203   4.242   3.427   6.112 -0.4628  0.5750 -0.1555
 1094TIP3   OH230204   5.139   6.813   0.433 -0.0108 -0.4070  0.6357
 1094TIP3    H130205   5.146   6.876   0.504  0.4195 -0.1677  0.3859
 1094TIP3    H230206   5.072   6.751   0.462 -1.7893  1.1627  0.1378
 1095TIP3   OH230207   6.593   3.113   0.737 -0.3226 -0.1159  0.0420
 1095TIP3    H130208   6.567   3.167   0.811 -1.6888 -0.0974 -0.4148
 1095TIP3    H230209   6.557   3.158   0.660  1.6544  0.2309 -0.7234
 1096TIP3   OH230210   4.719   0.238   6.794 -0.7925 -0.4955  0.4755
 1096TIP3    H130211   4.786   0.172   6.810 -2.3236 -1.8876  1.5131
 1096TIP3    H230212   4.738   0.308   6.857  0.0212 -0.5965  0.3494
 1097TIP3   OH230213   4.220   7.311   0.591 -0.5084  0.2862  1.2458
 1097TIP3    H130214   4.205   7.401   0.564 -0.8089 -0.3535 -0.9915
 1097TIP3    H230215   4.209   7.311   0.686 -1.9733  2.3075  1.1346
 1098TIP3   OH230216   7.442   8.408   0.719 -0.1227  0.0388 -0.5681
 1098TIP3    H130217   7.413   8.336   0.664  0.7515 -0.1273 -0.8256
 1098TIP3    H230218   7.525   8.436   0.681 -0.7216  1.5941 -0.8430
 1099TIP3   OH230219   2.672   3.468   6.022  0.6755 -0.4454  0.7166
 1099TIP3    H130220   2.600   3.416   5.987  1.1039 -1.9973  2.0405
 1099TIP3    H230221   2.745   3.451   5.962  0.4869 -0.3931  0.4675
 1100TIP3   OH230222   5.901   2.424   0.809  0.1570  0.7308  0.2445
 1100TIP3    H130223   5.833   2.360   0.828  1.4333 -0.5961  0.4674
 1100TIP3    H230224   5.963   2.377   0.753  0.8178  1.9678 -0.0992
 1101TIP3   OH230225   1.824   4.132   0.420  0.2448  0.2559 -0.1180
 1101TIP3    H130226   1.739   4.105   0.385  0.4686 -0.7026  0.0592
 1101TIP3    H230227   1.804   4.204   0.479 -0.5943 -0.7344  0.8521
 1102TIP3   OH230228   3.136   2.272   0.203 -0.6227  0.6089 -0.1403
 1102TIP3    H130229   3.220   2.243   0.169 -0.4183  0.5615  0.3987
 1102TIP3    H230230   3.128   2.363   0.172 -0.8549  0.2872 -1.0612
 1103TIP3   OH230231   7.996   7.768   6.976  0.7449 -0.2603 -0.5065
 1103TIP3    H130232   8.063   7.712   6.938  1.5493  0.9228 -0.8667
 1103TIP3    H230233   7.991   7.844   6.919 -0.9668 -0.3372 -0.5287
 1104TIP3   OH230234   7.195   1.141   0.737  0.2908  0.4778  0.1930
 1104TIP3    H130235   7.113   1.116   0.693  0.2579  1.7844 -0.5205
 1104TIP3    H230236   7.191   1.095   0.821  0.0581 -1.5844 -0.8678
 1105TIP3   OH230237   6.387   4.545   7.040 -0.6253  0.0367  0.2582
 1105TIP3    H130238   6.326   4.568   0.040 -0.2036  0.9128  0.3543
 1105TIP3    H230239   6.457   4.496   0.012 -0.6772  0.0358  0.3429
 1106TIP3   OH230240   7.214   6.052   0.053  0.2434  0.0360 -0.8182
 1106TIP3    H130241   7.253   6.050   0.141  2.1056 -0.7949 -1.5965
 1106TIP3    H230242   7.164   6.134   0.051 -1.4256 -0.8071  1.6079
 1107TIP3   OH230243   7.456   7.402   1.112  0.0105 -0.1877 -0.1922
 1107TIP3    H130244   7.428   7.316   1.080  0.1637  0.1408 -1.2140
 1107TIP3    H230245   7.550   7.392   1.129  0.0715 -0.1556 -0.5173
 1108TIP3   OH230246   6.596   5.792   0.997  0.2596  0.1653 -0.2406
 1108TIP3    H130247   6.505   5.788   0.967  0.2341  0.1848 -0.1657
 1108TIP3    H230248   6.630   5.705   0.980  0.4604  0.3774 -1.0075
 1109TIP3   OH230249   1.099   0.974   5.207 -0.2780 -0.5939 -0.0520
 1109TIP3    H130250   1.183   0.943   5.240  1.0068  0.6928 -1.9189
 1109TIP3    H230251   1.059   0.897   5.166  1.0418 -0.7590 -1.1014
 1110TIP3   OH230252   8.063   0.759   0.270  0.5838  0.4706  0.2163
 1110TIP3    H130253   8.108   0.784   0.350 -0.4696  0.4131  0.8514
 1110TIP3    H230254   8.126   0.704   0.223  1.4473  1.0361  0.6915
 1111TIP3   OH230255   0.969   7.253   1.019  0.2577  0.0599 -0.5382
 1111TIP3    H130256   0.956   7.210   0.935  5.3638  0.4369 -1.8489
 1111TIP3    H230257   0.946   7.345   1.003  1.0027  0.0926 -1.5100
 1112TIP3   OH230258   7.446   7.000   2.012  0.1356  0.2250 -0.3967
 1112TIP3    H130259   7.387   6.927   2.030  0.4214 -0.0430 -0.5446
 1112TIP3    H230260   7.432   7.020   1.919 -0.6235  0.9709 -0.1377
 1113TIP3   OH230261   0.198   0.733   0.105 -0.5421 -0.3966  0.0917
 1113TIP3    H130262   0.277   0.786   0.117 -0.3864 -0.0279 -2.0806
 1113TIP3    H230263   0.146   0.782   0.041 -0.9702 -2.2435 -1.0437
 1114TIP3   OH230264   6.103   0.548   0.270  0.0301  0.2650 -0.1305
 1114TIP3    H130265   6.199   0.546   0.266  0.0545  1.2561 -0.4365
 1114TIP3    H230266   6.076   0.573   0.182 -0.4966  0.3947  0.0629
 1115TIP3   OH230267   5.412   1.339   6.135 -0.1135  0.2384  0.2283
 1115TIP3    H130268   5.470   1.379   6.070  1.2092 -0.8576  0.7027
 1115TIP3    H230269   5.329   1.387   6.126  0.1956  0.4476 -1.9093
 1116TIP3   OH230270   5.070   6.014   1.565 -0.5996 -0.2992 -0.4913
 1116TIP3    H130271   5.036   6.046   1.648  0.5990 -0.2632 -0.0003
 1116TIP3    H230272   5.088   5.921   1.580  0.1998 -0.1570 -0.5034
 1117TIP3   OH230273   8.003   4.786   5.997  0.7515 -0.5752  0.1710
 1117TIP3    H130274   7.990   4.794   6.091  0.3812 -2.1544  0.2722
 1117TIP3    H230275   7.916   4.799   5.959  1.1685  1.8155 -0.1283
 1118TIP3   OH230276   0.247   0.542   6.205  0.1491  0.5365 -0.0990
 1118TIP3    H130277   0.199   0.472   6.250  0.7849  0.5390  0.5930
 1118TIP3    H230278   0.188   0.569   6.134 -2.1448  2.3852  2.2950
 1119TIP3   OH230279   1.021   3.253   6.529 -0.1993 -0.0194 -0.5604
 1119TIP3    H130280   1.007   3.183   6.465 -1.4392 -1.6696  1.3577
 1119TIP3    H230281   0.974   3.328   6.493 -3.2670 -1.6970 -0.4401
 1120TIP3   OH230282   5.257   4.874   5.621  0.3004  0.8365 -0.6320
 1120TIP3    H130283   5.213   4.839   5.544 -0.1489  0.6391 -0.2914
 1120TIP3    H230284   5.283   4.962   5.596  2.1647 -0.0002 -1.7816
 1121TIP3   OH230285   5.776   2.722   6.276  0.0032  0.3034  0.1959
 1121TIP3    H130286   5.768   2.776   6.355 -0.8414  0.3632  0.0785
 1121TIP3    H230287   5.712   2.652   6.287 -0.1615  0.3415 -0.4555
 1122TIP3   OH230288   7.648   4.091   0.764  0.2723  0.6300 -0.1874
 1122TIP3    H130289   7.591   4.155   0.808  0.4588  0.5620  0.1623
 1122TIP3    H230290   7.635   4.010   0.813 -1.3535 -0.1098 -1.7542
 1123TIP3   OH230291   7.085   3.822   6.727 -0.3142  0.3717  1.1191
 1123TIP3    H130292   7.030   3.805   6.651 -0.7007 -0.8532  1.6476
 1123TIP3    H230293   7.170   3.847   6.690 -0.2744 -0.9401  0.2614
 1124TIP3   OH230294   6.051   4.742   6.213 -0.3076 -0.2170 -0.6648
 1124TIP3    H130295   6.053   4.655   6.254 -3.2695 -0.3609 -0.5397
 1124TIP3    H230296   6.125   4.742   6.152  3.2716 -0.6157  3.2651
 1125TIP3   OH230297   0.760   2.604   6.319 -0.5435 -0.3862 -0.2403
 1125TIP3    H130298   0.836   2.635   6.270  1.5242 -0.5067  2.6707
 1125TIP3    H230299   0.787   2.520   6.356 -2.1290 -0.4645  0.8314
 1126TIP3   OH230300   1.795   8.409   0.407  0.4768 -0.2699  0.3160
 1126TIP3    H130301   1.762   8.344   0.345  0.9674 -0.1527 -0.0785
 1126TIP3    H230302   1.750   8.490   0.384  1.4208  0.0229 -0.5880
 1127TIP3   OH230303   4.957   5.825   6.942  0.0240  0.1326  0.6694
 1127TIP3    H130304   4.889   5.882   6.905  0.6121 -0.0655 -0.7596
 1127TIP3    H230305   4.983   5.769   6.870  1.6186  0.1068  1.2317
 1128TIP3   OH230306   6.795   0.015   5.494 -0.5481  0.2762 -0.0463
 1128TIP3    H130307   6.837   8.493   5.559 -2.1826 -0.6272  0.2725
 1128TIP3    H230308   6.753   0.083   5.547 -0.2716  0.6514 -0.3032
 1129TIP3   OH230309   2.440   4.342   5.127  0.5038 -0.0170 -0.2008
 1129TIP3    H130310   2.380   4.330   5.200 -2.6967  0.2353 -2.6035
 1129TIP3    H230311   2.463   4.435   5.130 -0.7040  0.2906 -0.3158
 1130TIP3   OH230312   8.347   3.230   7.068 -0.3743  0.2643 -0.0388
 1130TIP3    H130313   8.270   3.219   7.012 -1.4203 -2.2905  1.7050
 1130TIP3    H230314   8.344   3.155   0.056  3.1332  0.4132  0.5378
 1131TIP3   OH230315   5.729   5.488   0.978 -0.3523 -0.0789  0.5380
 1131TIP3    H130316   5.701   5.500   0.887 -0.3958 -1.6218  0.3211
 1131TIP3    H230317   5.697   5.566   1.023 -2.6153 -0.4754 -0.2552
 1132TIP3   OH230318   7.911   8.188   0.962 -0.5876  0.6031  0.6087
 1132TIP3    H130319   7.933   8.271   0.918 -2.3284  0.4980 -0.5557
 1132TIP3    H230320   7.841   8.151   0.908  0.0548 -1.5709  1.1938
 1133TIP3   OH230321   5.382   0.475   5.892 -0.1841  0.2378 -1.2001
 1133TIP3    H130322   5.421   0.467   5.805 -0.0412 -1.0377 -1.0412
 1133TIP3    H230323   5.324   0.399   5.900  3.4700 -2.6019  1.6204
 1134TIP3   OH230324   0.071   0.715   5.355  0.8502  0.3516  0.3855
 1134TIP3    H130325   0.070   0.703   5.450  0.2603 -2.1665  0.1285
 1134TIP3    H230326   8.514   0.713   5.330  1.0457 -2.9176 -0.5484
 1135TIP3   OH230327   6.293   3.361   1.792  0.4505 -0.1597 -0.7697
 1135TIP3    H130328   6.205   3.360   1.831  0.9027 -0.2616  0.2840
 1135TIP3    H230329   6.314   3.268   1.780  1.8218 -0.3960  2.3725
 1136TIP3   OH230330   3.539   2.931   5.521  0.7308 -0.3080  0.2763
 1136TIP3    H130331   3.468   2.872   5.547 -0.3563  0.3682 -1.0279
 1136TIP3    H230332   3.587   2.882   5.455 -0.8283  0.5632 -1.6277
 1137TIP3   OH230333   3.922   6.712   1.655  0.4745 -0.8480 -0.3516
 1137TIP3    H130334   3.974   6.710   1.735 -0.7914  0.4701  0.5518
 1137TIP3    H230335   3.838   6.750   1.681 -0.5223 -1.7583 -2.0062
 1138TIP3   OH230336   0.878   2.974   1.447  0.1987  0.2773  0.8659
 1138TIP3    H130337   0.928   3.013   1.519  0.2628  0.9452  0.4707
 1138TIP3    H230338   0.842   2.893   1.483  2.8778 -1.0845  0.7230
 1139TIP3   OH230339   6.862   1.426   5.658 -0.2525 -0.2349 -0.1070
 1139TIP3    H130340   6.925   1.494   5.680 -1.2420  0.8777 -0.5932
 1139TIP3    H230341   6.867   1.418   5.563 -0.9062 -0.0627 -0.1618
 1140TIP3   OH230342   0.390   7.306   0.066  0.4258 -0.3947 -0.6094
 1140TIP3    H130343   0.459   7.347   0.117 -0.4025 -0.9794  1.0692
 1140TIP3    H230344   0.433   7.276   7.057  1.5372  1.5445 -0.7989
 1141TIP3   OH230345   7.415   7.609   1.468  0.0189 -0.1562  0.4012
 1141TIP3    H130346   7.492   7.666   1.473 -0.3976  0.3451  1.2464
 1141TIP3    H230347   7.419   7.555   1.547 -1.0356  0.5844  0.9755
 1142TIP3   OH230348   6.010   4.863   5.361 -1.1599 -0.6848 -0.2030
 1142TIP3    H130349   6.101   4.891   5.364 -1.1052 -0.6852 -1.4282
 1142TIP3    H230350   5.960   4.944   5.368 -1.0375 -0.5159 -1.2354
 1143TIP3   OH230351   4.190   0.970   0.942  0.6715 -0.6002 -0.2492
 1143TIP3    H130352   4.176   1.050   0.892 -1.2346 -0.5868  0.2266
 1143TIP3    H230353   4.115   0.965   1.001  0.5573 -2.8692 -0.4707
 1144TIP3   OH230354   6.872   0.003   0.961 -0.4592 -0.4640 -0.3112
 1144TIP3    H130355   6.894   8.461   1.015  0.3559 -0.4274 -0.5850
 1144TIP3    H230356   6.783   8.521   0.932 -0.7479 -0.7167  0.6548
 1145TIP3   OH230357   0.776   4.468   1.718 -0.0676 -0.2796  0.3202
 1145TIP3    H130358   0.703   4.529   1.731 -0.6470 -1.4799  3.7737
 1145TIP3    H230359   0.833   4.512   1.655 -2.7149  1.6450 -0.8961
 1146TIP3   OH230360   3.424   5.718   0.991 -0.2807  0.0538  0.2551
 1146TIP3    H130361   3.492   5.691   1.053  5.1898  1.9840 -4.0076
 1146TIP3    H230362   3.396   5.636   0.951  0.1929 -0.7734  1.5435
 1147TIP3   OH230363   5.625   3.532   0.038 -0.5207 -0.1462 -0.3781
 1147TIP3    H130364   5.535   3.543   0.008  0.0062  0.3589 -1.9211
 1147TIP3    H230365   5.639   3.438   0.039 -0.8595 -0.2080 -0.8424
 1148TIP3   OH230366   0.458   3.051   6.440  0.2450  0.2165 -0.0897
 1148TIP3    H130367   0.497   3.136   6.420  0.6461 -0.3544 -1.9112
 1148TIP3    H230368   0.423   3.061   6.529 -0.1212  2.4260 -0.4145
 1149TIP3   OH230369   0.541   2.039   1.847 -0.3891 -0.2566  0.3153
 1149TIP3    H130370   0.596   2.052   1.924 -0.6536 -1.0729  0.6474
 1149TIP3    H230371   0.461   2.088   1.867 -0.1894  0.1046  0.2539
 1150TIP3   OH230372   6.669   1.833   6.209 -0.2721  0.2012 -0.1353
 1150TIP3    H130373   6.630   1.883   6.280 -0.7078 -0.4285  0.0728
 1150TIP3    H230374   6.731   1.773   6.252  1.5031  1.6720 -0.5065
 1151TIP3   OH230375   4.888   5.386   6.379  0.2173 -0.1084  0.5288
 1151TIP3    H130376   4.818   5.362   6.440 -2.5317  2.6050 -1.2263
 1151TIP3    H230377   4.879   5.323   6.307  0.4351 -0.5271  0.8618
 1152TIP3   OH230378   2.718   8.010   0.136  0.5856  0.8224  0.8169
 1152TIP3    H130379   2.652   8.014   0.205  2.3082 -1.0976  2.6822
 1152TIP3    H230380   2.758   8.097   0.136  0.0964  1.0551  1.7759
 1153TIP3   OH230381   1.749   2.739   0.839 -0.1468 -0.0701  0.1594
 1153TIP3    H130382   1.667   2.787   0.836  0.3232  0.7139 -0.9091
 1153TIP3    H230383   1.750   2.698   0.925 -2.2293 -1.1453 -0.2574
 1154TIP3   OH230384   2.546   3.870   6.765 -0.2263  0.5186  0.2393
 1154TIP3    H130385   2.616   3.879   6.700 -1.4831 -0.6733 -1.3901
 1154TIP3    H230386   2.544   3.954   6.810  3.4678  0.0006  1.7259
 1155TIP3   OH230387   0.594   1.167   5.239  0.0219  0.9842 -0.6626
 1155TIP3    H130388   0.611   1.244   5.294  2.0244  1.0589 -1.2920
 1155TIP3    H230389   0.503   1.145   5.255  0.1993  1.7625  1.7245
 1156TIP3   OH230390   6.164   5.594   1.550  0.0250  0.4049 -0.3865
 1156TIP3    H130391   6.178   5.505   1.584  0.2948  0.3946 -0.5196
 1156TIP3    H230392   6.244   5.641   1.574 -0.3881  0.7956  0.2594
 1157TIP3   OH230393   7.711   6.820   7.001 -0.2245 -0.2100  0.2157
 1157TIP3    H130394   7.662   6.739   6.985  1.4242 -0.9432 -1.4122
 1157TIP3    H230395   7.736   6.850   6.914  1.0369  0.8740  0.9281
 1158TIP3   OH230396   0.352   3.853   4.963 -0.1858 -0.3603 -0.2303
 1158TIP3    H130397   0.305   3.924   5.007  1.3412  0.1460  0.6806
 1158TIP3    H230398   0.390   3.802   5.035  0.4202 -0.8928 -0.9193
 1159TIP3   OH230399   7.000   0.899   2.004 -0.3581  0.6693 -0.0296
 1159TIP3    H130400   7.089   0.932   2.014  0.3303 -0.6452 -1.3097
 1159TIP3    H230401   6.982   0.853   2.086 -0.8923  3.1030  1.2850
 1160TIP3   OH230402   1.616   2.592   6.946  0.0109 -0.4062 -0.2026
 1160TIP3    H130403   1.688   2.654   6.956 -0.6933  0.5189 -0.7675
 1160TIP3    H230404   1.538   2.646   6.939 -0.8184 -1.4142  0.9242
 1161TIP3   OH230405   6.441   8.413   0.868 -0.2733  0.6245 -0.1053
 1161TIP3    H130406   6.397   8.342   0.914  0.8907 -0.0624 -0.0284
 1161TIP3    H230407   6.487   8.461   0.936 -1.7271  2.0010 -0.0300
 1162TIP3   OH230408   6.396   4.260   6.066 -0.2164  0.4517 -0.1532
 1162TIP3    H130409   6.405   4.292   6.156  1.1536  2.7654 -1.0246
 1162TIP3    H230410   6.305   4.229   6.060  0.3264 -2.0632  2.6574
 1163TIP3   OH230411   1.289   2.109   1.376 -0.4239  0.1358 -0.0301
 1163TIP3    H130412   1.381   2.133   1.387 -0.4652 -0.5009  1.9680
 1163TIP3    H230413   1.261   2.158   1.298  1.9378 -0.7051 -1.4913
 1164TIP3   OH230414   2.178   6.160   5.635  0.2232 -0.1778  0.6141
 1164TIP3    H130415   2.097   6.126   5.596 -0.5074  1.7537  0.3018
 1164TIP3    H230416   2.193   6.243   5.589  1.7427  0.0568  1.4807
 1165TIP3   OH230417   3.513   3.203   0.686 -0.0181  0.5112 -0.1350
 1165TIP3    H130418   3.520   3.283   0.738  0.2256  1.9076 -2.1853
 1165TIP3    H230419   3.582   3.212   0.619 -0.0310 -1.3884 -0.4584
 1166TIP3   OH230420   5.283   6.203   6.099  0.1492 -0.1544 -0.8496
 1166TIP3    H130421   5.254   6.292   6.121 -0.7373 -0.3191 -1.3031
 1166TIP3    H230422   5.377   6.204   6.114 -0.0266  0.4991  0.3653
 1167TIP3   OH230423   1.819   7.820   1.618 -0.3522  0.3095  0.0049
 1167TIP3    H130424   1.753   7.800   1.553 -0.7015  0.5674  0.2758
 1167TIP3    H230425   1.892   7.761   1.598  0.0032  1.1390 -1.3107
 1168TIP3   OH230426   4.200   3.054   0.067 -0.0425  0.1653  0.6149
 1168TIP3    H130427   4.154   3.002   0.001  0.9852  0.2817 -0.2369
 1168TIP3    H230428   4.144   3.130   0.082  0.1883  0.7034 -0.9749
 1169TIP3   OH230429   5.049   0.008   1.900  0.0881 -0.1928  0.6755
 1169TIP3    H130430   5.046   8.476   1.832 -0.3877  0.6543 -0.1667
 1169TIP3    H230431   5.131   8.526   1.947  0.4687 -0.7492 -0.1558
 1170TIP3   OH230432   6.806   3.220   1.963 -0.1063 -0.4668 -0.2452
 1170TIP3    H130433   6.890   3.220   1.917 -0.1359  0.0602 -0.3036
 1170TIP3    H230434   6.741   3.201   1.895 -0.2043  0.8311 -0.5361
 1171TIP3   OH230435   3.762   1.463   1.209  0.1748  0.0842 -0.1053
 1171TIP3    H130436   3.774   1.416   1.292 -0.9184 -0.5600 -0.2941
 1171TIP3    H230437   3.670   1.488   1.209  0.7504  2.4054  0.0530
 1172TIP3   OH230438   3.480   1.759   1.160 -0.1664 -0.1751 -0.2712
 1172TIP3    H130439   3.411   1.792   1.217  0.0700  0.1489 -0.1722
 1172TIP3    H230440   3.494   1.669   1.189  0.4359  0.2062  0.6376
 1173TIP3   OH230441   4.080   3.762   0.821 -0.0343  0.3080 -0.4185
 1173TIP3    H130442   4.153   3.783   0.880 -0.8537  0.1055  0.6915
 1173TIP3    H230443   4.046   3.678   0.854 -0.8777  0.4881 -0.8156
 1174TIP3   OH230444   2.995   3.988   6.105  0.3148 -0.2910 -0.4389
 1174TIP3    H130445   3.087   3.997   6.129  0.7760 -0.8897 -1.8660
 1174TIP3    H230446   2.984   3.895   6.084 -1.0437 -0.5667  1.2496
 1175TIP3   OH230447   7.601   5.973   6.560  0.1540  0.0163 -0.4432
 1175TIP3    H130448   7.560   6.033   6.498 -1.0349 -0.6813 -0.3700
 1175TIP3    H230449   7.645   5.908   6.506  0.7680  0.4945 -0.5275
 1176TIP3   OH230450   4.721   0.351   6.536 -0.1526 -0.5397 -0.2710
 1176TIP3    H130451   4.692   0.341   6.626  0.8891  1.8308  0.4062
 1176TIP3    H230452   4.641   0.364   6.486 -0.6606 -0.6615  0.4878
 1177TIP3   OH230453   6.628   3.277   0.960  0.0296 -0.0548 -0.0344
 1177TIP3    H130454   6.706   3.327   0.938  0.6680 -0.3235  1.5455
 1177TIP3    H230455   6.580   3.332   1.022 -1.2306  0.2465 -1.2027
 1178TIP3   OH230456   1.199   8.071   5.263 -0.2223 -0.0445 -0.0060
 1178TIP3    H130457   1.200   8.067   5.168 -0.8600 -0.1532 -0.0091
 1178TIP3    H230458   1.240   7.988   5.290  0.2708  0.1366 -0.1811
 1179TIP3   OH230459   7.797   6.855   1.261  0.1837 -0.5369  0.3568
 1179TIP3    H130460   7.780   6.763   1.284 -0.9571  0.2165  2.9283
 1179TIP3    H230461   7.859   6.885   1.327  1.5398  0.2764 -1.2067
 1180TIP3   OH230462   7.163   7.901   0.179  0.1005  0.5969  0.3809
 1180TIP3    H130463   7.069   7.899   0.197  0.1512  0.7296  0.6689
 1180TIP3    H230464   7.170   7.890   0.085 -0.2435  1.3954  0.2571
 1181TIP3   OH230465   1.314   1.427   1.114  0.6031 -0.4854  0.0448
 1181TIP3    H130466   1.244   1.398   1.172 -0.4685  0.0320 -0.9688
 1181TIP3    H230467   1.354   1.500   1.161 -1.3808  1.0811 -0.5754
 1182TIP3   OH230468   6.938   2.825   0.723 -0.3072  0.2917 -0.4374
 1182TIP3    H130469   7.011   2.763   0.718 -1.0523 -1.0267  2.6000
 1182TIP3    H230470   6.971   2.905   0.681  2.8247 -0.3088  0.6510
 1183TIP3   OH230471   6.344   0.113   5.498 -0.3673 -0.5019  0.5536
 1183TIP3    H130472   6.249   0.116   5.508 -0.5105  1.1012 -0.8326
 1183TIP3    H230473   6.370   0.031   5.539 -2.3239 -0.8871  1.1204
 1184TIP3   OH230474   6.248   3.302   0.927  0.1075 -0.0415  0.0254
 1184TIP3    H130475   6.249   3.207   0.935 -0.0872 -0.0357  0.1246
 1184TIP3    H230476   6.333   3.330   0.961  0.3672 -0.2175 -0.4832
 1185TIP3   OH230477   8.120   1.053   0.226  0.2760 -0.6138 -0.7370
 1185TIP3    H130478   8.183   1.015   0.288 -0.5011 -0.0183  0.4463
 1185TIP3    H230479   8.147   1.018   0.141  1.5213 -1.2574 -0.1092
 1186TIP3   OH230480   7.724   4.865   2.199  0.1044 -0.5547 -0.4748
 1186TIP3    H130481   7.659   4.796   2.213 -0.9822 -0.5991 -4.6172
 1186TIP3    H230482   7.800   4.819   2.163  1.2780 -0.0646  1.2251
 1187TIP3   OH230483   4.169   2.314   6.109 -0.3581  0.0021 -0.5101
 1187TIP3    H130484   4.166   2.248   6.178 -0.0121  0.6357  0.1218
 1187TIP3    H230485   4.262   2.333   6.098 -0.5548  2.2520  1.1547
 1188TIP3   OH230486   6.103   5.586   5.340  0.3197  0.4457  0.3213
 1188TIP3    H130487   6.040   5.522   5.373 -0.8974  1.5128  0.1093
 1188TIP3    H230488   6.178   5.578   5.400 -0.2802 -0.3644  0.9846
 1189TIP3   OH230489   6.757   3.834   5.002 -0.7360 -0.0327  0.3192
 1189TIP3    H130490   6.851   3.813   5.002 -0.1964  1.7912  3.0570
 1189TIP3    H230491   6.714   3.751   5.024  0.1977 -0.8567 -0.7990
 1190TIP3   OH230492   5.727   2.878   6.036 -0.3316  0.1382 -0.4066
 1190TIP3    H130493   5.639   2.900   6.068  0.2010  0.5851  0.7821
 1190TIP3    H230494   5.768   2.831   6.108 -0.4242 -2.3678 -1.8453
 1191TIP3   OH230495   0.587   4.126   1.797 -0.2471  0.6052 -0.0926
 1191TIP3    H130496   0.533   4.119   1.875 -0.4503  1.5878 -0.1333
 1191TIP3    H230497   0.668   4.167   1.827 -0.3942  1.1486 -0.4183
 1192TIP3   OH230498   7.463   5.857   4.906  0.3311  0.6391 -0.0143
 1192TIP3    H130499   7.398   5.822   4.844 -1.2109  0.0060  1.8600
 1192TIP3    H230500   7.493   5.781   4.955 -0.2604  1.3980  1.5991
 1193TIP3   OH230501   4.406   1.328   0.216 -0.1404  0.0126 -0.2890
 1193TIP3    H130502   4.491   1.310   0.257 -0.3238  0.5575  0.3522
 1193TIP3    H230503   4.347   1.265   0.257  0.1468 -1.0974 -1.5155
 1194TIP3   OH230504   0.886   4.512   6.078  0.2192 -0.4984  0.8849
 1194TIP3    H130505   0.869   4.436   6.134 -1.9350 -0.2321  0.6758
 1194TIP3    H230506   0.904   4.583   6.140 -0.7601 -0.5186  1.2100
 1195TIP3   OH230507   5.848   2.002   6.316  0.8202  0.0057 -0.3368
 1195TIP3    H130508   5.761   2.030   6.287  1.0534  0.5082 -0.5653
 1195TIP3    H230509   5.901   1.999   6.236  0.8562 -0.9124 -0.2903
 1196TIP3   OH230510   4.884   2.355   6.373  0.3215 -0.1166 -0.3535
 1196TIP3    H130511   4.834   2.340   6.293 -0.5722  3.0489 -0.5301
 1196TIP3    H230512   4.976   2.355   6.345  0.2332 -1.9794 -0.7672
 1197TIP3   OH230513   8.268   0.035   0.510 -0.0411 -0.3438 -0.1489
 1197TIP3    H130514   8.327   0.049   0.435 -0.7461  0.0777 -0.6355
 1197TIP3    H230515   8.269   0.118   0.557 -0.2560 -0.3291 -0.1699
 1198TIP3   OH230516   4.539   3.916   5.797 -0.1570  0.0172  0.1080
 1198TIP3    H130517   4.481   3.846   5.765 -1.2241  1.1694 -0.5773
 1198TIP3    H230518   4.582   3.949   5.719  1.1570 -0.5601  0.5689
 1199TIP3   OH230519   6.363   5.277   6.925  0.2869 -0.4020  0.4073
 1199TIP3    H130520   6.329   5.226   6.851  1.1362 -1.1920  0.5418
 1199TIP3    H230521   6.424   5.339   6.885  0.3132 -0.4414  0.3866
 1200TIP3   OH230522   7.053   4.888   0.828  0.4688  0.1293  0.5613
 1200TIP3    H130523   6.980   4.879   0.767 -0.6105  0.3188  1.7687
 1200TIP3    H230524   7.049   4.808   0.881  0.6054  0.5237  1.1791
 1201TIP3   OH230525   5.829   5.657   6.454 -0.2795 -0.0340  0.3650
 1201TIP3    H130526   5.817   5.574   6.409  0.2515 -0.7418  1.4826
 1201TIP3    H230527   5.791   5.722   6.395  0.7023 -0.8628 -1.2663
 1202TIP3   OH230528   6.709   5.181   5.321 -0.4083 -0.2943  0.1856
 1202TIP3    H130529   6.619   5.148   5.326 -0.5168 -0.2366 -1.2192
 1202TIP3    H230530   6.700   5.276   5.314 -0.3104 -0.3936 -1.5005
 1203TIP3   OH230531   7.680   0.220   1.214  0.9561 -0.0279  0.2387
 1203TIP3    H130532   7.763   0.265   1.229 -0.2822  2.2801  0.5999
 1203TIP3    H230533   7.675   0.154   1.283  2.1664  0.2413  0.6041
 1204TIP3   OH230534   1.119   6.838   1.105  0.1088  0.2658 -0.1472
 1204TIP3    H130535   1.050   6.777   1.079  0.3670 -0.4359  0.7657
 1204TIP3    H230536   1.073   6.916   1.135 -0.3880 -0.7039  1.7790
 1205TIP3   OH230537   0.400   7.055   5.496  0.2746 -0.9477  0.3772
 1205TIP3    H130538   0.388   7.001   5.575  0.0034 -1.3801  0.0452
 1205TIP3    H230539   0.344   7.014   5.430 -0.7082  0.3247  0.3851
 1206TIP3   OH230540   3.526   0.628   0.691  0.1232  0.1347 -0.6093
 1206TIP3    H130541   3.524   0.703   0.631 -0.7274  0.3448 -0.3343
 1206TIP3    H230542   3.437   0.623   0.725  0.7232  0.3181  1.0308
 1207TIP3   OH230543   1.293   4.085   6.667  0.5183  0.2903  0.6606
 1207TIP3    H130544   1.358   4.148   6.636  0.7246  0.6057  1.6844
 1207TIP3    H230545   1.210   4.132   6.663  0.4991  0.2332  0.3345
 1208TIP3   OH230546   7.755   7.778   6.109 -0.6410 -0.0186  0.2046
 1208TIP3    H130547   7.726   7.779   6.200 -2.4417  0.6023 -0.3304
 1208TIP3    H230548   7.779   7.869   6.091 -0.7561 -0.0409 -0.0647
 1209TIP3   OH230549   0.635   7.451   0.627 -0.3086 -0.0890 -0.2950
 1209TIP3    H130550   0.560   7.448   0.568  0.9230 -2.2074 -1.9073
 1209TIP3    H230551   0.597   7.457   0.715 -2.2668  0.5278 -1.1399
 1210TIP3   OH230552   6.231   0.216   7.061 -0.6145 -0.3542  0.1231
 1210TIP3    H130553   6.230   0.120   7.070  0.1945 -0.2518  1.5613
 1210TIP3    H230554   6.303   0.234   7.000  0.0495 -0.6022  0.8272
 1211TIP3   OH230555   8.057   5.906   6.151 -0.1087  0.3137 -0.3645
 1211TIP3    H130556   8.124   5.950   6.203  0.5829 -0.9781 -0.1165
 1211TIP3    H230557   8.103   5.873   6.074 -0.2950 -1.1506  0.1180
 1212TIP3   OH230558   6.768   0.084   1.346 -0.1044  0.2585 -0.9435
 1212TIP3    H130559   6.829   0.011   1.353  0.9031  1.1062 -0.7026
 1212TIP3    H230560   6.779   0.132   1.428 -0.8211  0.6430 -1.0612
 1213TIP3   OH230561   1.887   4.208   6.673 -0.6825  0.1802 -0.6750
 1213TIP3    H130562   1.976   4.182   6.648 -0.8096 -0.0306 -0.9114
 1213TIP3    H230563   1.865   4.151   6.747 -0.4757  0.5015 -0.3567
 1214TIP3   OH230564   1.466   8.531   5.583  0.0956 -0.0820  0.1833
 1214TIP3    H130565   1.401   0.065   5.583  1.4964  1.3366  1.4645
 1214TIP3    H230566   1.512   0.007   5.667  2.4252 -0.5375 -0.9541
 1215TIP3   OH230567   1.641   7.900   5.828  0.1400  0.6653 -0.0391
 1215TIP3    H130568   1.676   7.847   5.756 -3.4306 -1.3447 -0.4992
 1215TIP3    H230569   1.621   7.984   5.788  2.0183  1.0210 -0.3140
 1216TIP3   OH230570   7.384   3.227   6.824  0.7519 -0.0728 -0.7368
 1216TIP3    H130571   7.356   3.298   6.767 -3.1614 -0.8010 -0.0258
 1216TIP3    H230572   7.369   3.260   6.913 -0.1587 -1.3623 -0.3761
 1217TIP3   OH230573   7.465   7.697   0.718  0.4407  0.4211 -0.5243
 1217TIP3    H130574   7.486   7.615   0.674  0.3704  0.3209 -0.3680
 1217TIP3    H230575   7.415   7.672   0.795 -0.6469  0.6828 -1.1163
 1218TIP3   OH230576   7.131   8.393   0.757  0.0136 -0.0222 -0.2993
 1218TIP3    H130577   7.215   8.425   0.723 -0.0327 -0.5705 -0.9510
 1218TIP3    H230578   7.078   8.472   0.767 -0.5039  0.0647 -2.9934
 1219TIP3   OH230579   1.178   7.422   0.502 -0.3348 -0.0633  0.0866
 1219TIP3    H130580   1.222   7.506   0.514 -0.4323  0.2583 -1.5519
 1219TIP3    H230581   1.241   7.368   0.454 -0.8586 -0.3733 -0.2678
 1220TIP3   OH230582   0.273   3.505   5.082 -0.6513  0.6541 -0.2369
 1220TIP3    H130583   0.223   3.449   5.022  1.9066 -0.2150 -1.7021
 1220TIP3    H230584   0.332   3.445   5.128  0.8836  1.8928 -0.4956
 1221TIP3   OH230585   7.358   5.958   0.847  0.1025  0.2902  0.3747
 1221TIP3    H130586   7.337   6.002   0.929  1.7186  0.5506  0.6948
 1221TIP3    H230587   7.309   6.006   0.780 -0.4854  0.6796  1.0799
 1222TIP3   OH230588   4.902   0.521   6.377 -0.0664 -0.3451  0.4324
 1222TIP3    H130589   4.879   0.543   6.287  1.9536 -0.9294 -0.2884
 1222TIP3    H230590   4.830   0.466   6.408 -1.5825  1.1756 -0.2176
 1223TIP3   OH230591   2.696   7.588   7.063  0.1362 -0.2833 -0.2202
 1223TIP3    H130592   2.633   7.516   7.052  0.2409 -0.4937  0.5184
 1223TIP3    H230593   2.782   7.547   7.060  0.1993 -0.7124  3.1680
 1224TIP3   OH230594   7.411   8.476   6.537 -0.2211  0.1747 -0.3222
 1224TIP3    H130595   7.402   8.466   6.442  0.5691 -1.4605 -0.2484
 1224TIP3    H230596   7.334   8.527   6.563 -0.4903  0.5756 -1.8242
 1225TIP3   OH230597   0.886   8.144   5.724  1.1262  0.0609  0.0853
 1225TIP3    H130598   0.972   8.176   5.752  1.8991 -0.7942 -1.2086
 1225TIP3    H230599   0.851   8.214   5.669  0.5175  0.8466  1.4241
 1226TIP3   OH230600   8.419   6.607   6.078 -0.0858  0.1577  0.2459
 1226TIP3    H130601   8.357   6.618   6.150 -1.3432 -2.0056 -0.4254
 1226TIP3    H230602   8.421   6.513   6.062  1.0996  0.4615 -1.7565
 1227TIP3   OH230603   2.251   1.202   6.621 -0.3128 -0.4579  0.6226
 1227TIP3    H130604   2.257   1.170   6.711 -0.0049  0.2652  0.8750
 1227TIP3    H230605   2.340   1.232   6.601 -0.6007  0.3085  0.4435
 1228TIP3   OH230606   6.145   6.597   6.748 -0.6519  0.1245 -0.1926
 1228TIP3    H130607   6.110   6.657   6.683  0.3793  1.4237  0.4169
 1228TIP3    H230608   6.237   6.586   6.725 -0.8832 -1.5276 -0.4979
 1229TIP3   OH230609   1.900   2.638   1.379  0.3245  0.4097  0.1576
 1229TIP3    H130610   1.827   2.624   1.439 -0.0229 -0.3034 -0.4224
 1229TIP3    H230611   1.949   2.710   1.419  0.3196 -0.2837  1.5018
 1230TIP3   OH230612   2.340   1.425   4.785  0.5114  0.5885 -0.6208
 1230TIP3    H130613   2.301   1.378   4.859  1.9369 -2.2154 -1.5027
 1230TIP3    H230614   2.379   1.503   4.824 -0.3148  0.1099  1.2900
 1231TIP3   OH230615   2.343   5.091   6.115 -0.1364  0.2573 -0.1223
 1231TIP3    H130616   2.352   5.008   6.069  2.4547 -0.0552  0.7885
 1231TIP3    H230617   2.272   5.136   6.069  0.8754 -0.8962 -3.0570
 1232TIP3   OH230618   4.005   7.133   5.107  0.4048 -0.7377 -0.1572
 1232TIP3    H130619   3.914   7.163   5.105  0.2826 -1.1477 -1.0407
 1232TIP3    H230620   4.035   7.153   5.196  0.2796  1.8484 -0.6060
 1233TIP3   OH230621   8.097   6.379   4.918  0.1366 -0.1441  0.4382
 1233TIP3    H130622   8.089   6.366   4.823  1.5732  2.7286 -0.1987
 1233TIP3    H230623   8.186   6.413   4.930 -1.3933  3.8863  2.1453
 1234TIP3   OH230624   5.658   5.125   6.130 -0.3993 -0.7315 -0.2008
 1234TIP3    H130625   5.752   5.116   6.145 -0.2083  0.8924 -0.2613
 1234TIP3    H230626   5.650   5.138   6.035 -0.2243  3.2963  0.1864
 1235TIP3   OH230627   6.081   2.772   1.458  0.1185 -0.3407  0.6180
 1235TIP3    H130628   6.154   2.712   1.443 -0.9110 -1.6966  0.8760
 1235TIP3    H230629   6.064   2.766   1.551 -0.2592  0.0453  0.5741
 1236TIP3   OH230630   6.648   1.348   0.708 -0.1411 -0.2218  0.0514
 1236TIP3    H130631   6.573   1.362   0.650 -1.6281  0.1430  1.9285
 1236TIP3    H230632   6.715   1.309   0.653 -1.3997  0.2541 -1.9147
 1237TIP3   OH230633   8.266   6.771   5.869 -0.3319 -0.2181  0.1554
 1237TIP3    H130634   8.215   6.805   5.943 -1.3543 -0.2077 -0.5192
 1237TIP3    H230635   8.280   6.679   5.890  1.1038  0.2079  1.2629
 1238TIP3   OH230636   0.360   7.588   0.649  0.4581 -0.1553 -0.1402
 1238TIP3    H130637   0.351   7.610   0.742 -0.3805 -2.2259  0.3196
 1238TIP3    H230638   0.274   7.606   0.611  1.3957  2.8696 -1.1030
 1239TIP3   OH230639   2.931   1.423   1.982 -0.1635  0.2688 -1.0090
 1239TIP3    H130640   3.026   1.415   1.976 -0.1884 -0.0517 -1.0132
 1239TIP3    H230641   2.901   1.336   2.008 -0.3721  0.6617  0.1111
 1240TIP3   OH230642   6.962   3.410   5.217 -0.2851  0.2673 -0.1489
 1240TIP3    H130643   6.989   3.371   5.134 -0.1633  0.0164  0.0067
 1240TIP3    H230644   7.004   3.356   5.284 -0.2621  0.5551  0.0733
 1241TIP3   OH230645   6.468   2.597   0.260  0.3413 -0.2739  0.0259
 1241TIP3    H130646   6.507   2.580   0.346 -0.7443  1.9341  1.0227
 1241TIP3    H230647   6.384   2.637   0.279  0.2918  0.7426 -2.0707
 1242TIP3   OH230648   5.238   8.000   6.381  0.3435  0.2060  0.6604
 1242TIP3    H130649   5.188   8.070   6.423  0.2758 -0.1583  1.1944
 1242TIP3    H230650   5.304   8.046   6.329  0.0469  0.6724  0.6868
 1243TIP3   OH230651   0.747   7.168   0.120  0.1204 -0.2180 -0.4153
 1243TIP3    H130652   0.828   7.218   0.133 -0.4244  0.0839  2.5954
 1243TIP3    H230653   0.749   7.142   0.028  2.9519  0.9459 -0.7831
 1244TIP3   OH230654   3.017   4.419   1.142 -0.6223  0.4446  0.0702
 1244TIP3    H130655   2.942   4.418   1.202 -0.8979  0.4168 -0.2727
 1244TIP3    H230656   3.085   4.466   1.190 -1.0851  1.0757  0.1120
 1245TIP3   OH230657   5.398   0.227   6.233 -0.4548  0.0266  0.4556
 1245TIP3    H130658   5.315   0.225   6.281 -1.5987  1.1497 -1.3492
 1245TIP3    H230659   5.392   0.306   6.178  1.9826  0.3451  0.5356
 1246TIP3   OH230660   3.835   6.260   0.274 -0.1947 -0.2227  0.0500
 1246TIP3    H130661   3.811   6.168   0.262  0.0683 -0.2063 -0.6276
 1246TIP3    H230662   3.868   6.264   0.364 -1.8223 -0.4387  0.7053
 1247TIP3   OH230663   7.783   1.030   1.602  0.1096 -0.6120  0.4926
 1247TIP3    H130664   7.766   1.011   1.695 -1.4475  0.8904  0.5529
 1247TIP3    H230665   7.870   1.071   1.602 -0.0366 -0.2773  1.3311
 1248TIP3   OH230666   2.884   6.859   1.379  0.2032 -0.1982  0.1177
 1248TIP3    H130667   2.807   6.807   1.400 -0.2457  0.0107 -0.9291
 1248TIP3    H230668   2.854   6.920   1.311  0.7492  1.3297  1.1964
 1249TIP3   OH230669   7.919   3.364   5.712 -0.3467  0.2950 -0.1479
 1249TIP3    H130670   7.844   3.305   5.701  0.4386 -0.3080 -3.0039
 1249TIP3    H230671   7.994   3.315   5.678  0.8532  1.9027  0.0593
 1250TIP3   OH230672   2.678   2.336   6.207  0.3726  0.1771  0.5622
 1250TIP3    H130673   2.724   2.301   6.131 -1.0633 -0.2066 -0.1621
 1250TIP3    H230674   2.742   2.330   6.278  1.2255 -0.9463 -0.2513
 1251TIP3   OH230675   2.063   5.108   6.140  0.4520  0.2339 -0.2635
 1251TIP3    H130676   1.978   5.065   6.154  0.5996 -0.4318 -1.3314
 1251TIP3    H230677   2.098   5.120   6.229 -0.3094 -0.4132  0.1386
 1252TIP3   OH230678   5.240   8.155   5.719  0.7626  0.0704 -0.3215
 1252TIP3    H130679   5.214   8.247   5.710  0.8639 -0.0160 -1.6867
 1252TIP3    H230680   5.221   8.116   5.634 -1.9237 -1.8888  1.0168
 1253TIP3   OH230681   4.111   1.209   6.379 -0.8025  0.0575 -0.2279
 1253TIP3    H130682   4.172   1.217   6.452 -0.0941 -1.5875 -0.5942
 1253TIP3    H230683   4.044   1.149   6.411 -1.0105  0.0906 -0.6028
 1254TIP3   OH230684   4.236   6.983   1.931 -0.3913  0.5692  0.1395
 1254TIP3    H130685   4.220   6.890   1.916  1.1827  0.5932 -2.4119
 1254TIP3    H230686   4.157   7.015   1.974 -1.5211 -1.6794 -0.1289
 1255TIP3   OH230687   2.132   0.990   4.953  0.5991 -0.3490  0.2591
 1255TIP3    H130688   2.123   0.947   5.038  0.0718  0.6380  0.7184
 1255TIP3    H230689   2.154   0.919   4.893 -0.0263 -1.2211  1.0301
 1256TIP3   OH230690   1.704   8.248   6.169 -0.8201  0.1911 -0.6406
 1256TIP3    H130691   1.689   8.233   6.076 -2.1208  0.3840 -0.4727
 1256TIP3    H230692   1.791   8.290   6.172 -0.7602  0.1874 -1.7563
 1257TIP3   OH230693   7.181   0.012   6.656  0.4775  0.4769  0.0026
 1257TIP3    H130694   7.113   0.027   6.591  0.7293  2.4701  0.1338
 1257TIP3    H230695   7.149   8.474   6.708  0.8021 -1.9828 -3.0023
 1258TIP3   OH230696   8.415   6.285   6.643  0.5621  0.3444 -0.3044
 1258TIP3    H130697   8.503   6.320   6.659  1.1093 -0.1362 -2.0045
 1258TIP3    H230698   8.415   6.264   6.549 -0.9851 -0.7384 -0.0905
 1259TIP3   OH230699   8.211   6.066   4.986  0.7445 -0.0498  0.4411
 1259TIP3    H130700   8.159   6.000   5.032 -0.4788  1.1407  0.8168
 1259TIP3    H230701   8.265   6.015   4.925  0.5458 -1.4553  1.3897
 1260TIP3   OH230702   6.581   3.579   4.778  0.0399 -0.0939 -0.3409
 1260TIP3    H130703   6.596   3.499   4.828  0.9701  0.6228  0.5522
 1260TIP3    H230704   6.504   3.619   4.819 -0.5153 -0.5751 -0.8791
 1261TIP3   OH230705   6.962   3.475   2.004  0.2217 -0.1288  0.3601
 1261TIP3    H130706   6.874   3.440   1.984  0.1975  0.0337  0.1771
 1261TIP3    H230707   6.954   3.512   2.092 -0.8129  2.8661 -0.8647
 1262TIP3   OH230708   0.204   2.249   0.742  0.1408  0.0122  0.7231
 1262TIP3    H130709   0.177   2.335   0.709 -2.2266 -1.2528 -0.9485
 1262TIP3    H230710   0.234   2.201   0.665  0.1456 -1.0788  1.3789
 1263TIP3   OH230711   4.350   3.346   5.854 -0.3337 -0.2166  0.2673
 1263TIP3    H130712   4.316   3.405   5.787 -1.5629  0.4038  1.3845
 1263TIP3    H230713   4.284   3.348   5.923  0.4414 -1.5686  1.0912
 1264TIP3   OH230714   4.234   4.891   0.124  0.6580 -0.2717  0.2630
 1264TIP3    H130715   4.273   4.804   0.134  1.5529  0.1875  0.8973
 1264TIP3    H230716   4.273   4.943   0.194 -1.0226  0.2551  0.8597
 1265TIP3   OH230717   4.740   7.117   1.920  0.1812  0.4359  0.0260
 1265TIP3    H130718   4.780   7.199   1.949  1.0973  0.2530 -0.6580
 1265TIP3    H230719   4.647   7.126   1.941  0.1944  1.8206 -0.4215
 1266TIP3   OH230720   3.243   1.404   6.239 -0.1081  0.1714  0.4718
 1266TIP3    H130721   3.218   1.430   6.151  0.2824  0.3253  0.4041
 1266TIP3    H230722   3.220   1.311   6.244 -0.3157  0.2124  0.2781
 1267TIP3   OH230723   4.771   4.503   6.048  0.8451 -0.1383  0.1741
 1267TIP3    H130724   4.797   4.583   6.093 -0.7844  0.2799  0.4457
 1267TIP3    H230725   4.687   4.525   6.007 -0.0366 -1.9372  0.9239
 1268TIP3   OH230726   7.951   6.938   6.518  0.3644 -0.0244 -0.8616
 1268TIP3    H130727   8.043   6.959   6.500  1.1875 -3.2424 -1.1134
 1268TIP3    H230728   7.919   6.900   6.436 -0.7364 -0.3108 -0.3172
 1269TIP3   OH230729   1.965   2.355   0.535 -0.0053  0.6212  0.1335
 1269TIP3    H130730   2.058   2.367   0.515 -0.2820  1.3367 -0.7320
 1269TIP3    H230731   1.933   2.443   0.555 -0.5355  0.3985  0.2839
 1270TIP3   OH230732   1.701   4.387   0.520 -0.1560  0.4488  0.0222
 1270TIP3    H130733   1.634   4.382   0.588 -1.4522  0.7548 -1.1933
 1270TIP3    H230734   1.655   4.368   0.439  1.7181 -1.7968 -0.6127
 1271TIP3   OH230735   8.481   4.190   6.269 -0.1815  0.3234  0.1234
 1271TIP3    H130736   8.496   4.237   6.187 -0.8348  1.0619  0.4087
 1271TIP3    H230737   8.430   4.252   6.323  1.0834  0.2523  1.4704
 1272TIP3   OH230738   7.832   8.460   5.295 -0.1299 -0.1877 -0.0017
 1272TIP3    H130739   7.807   8.523   5.227  1.8051  0.8835  0.2012
 1272TIP3    H230740   7.922   8.437   5.273  0.4150 -0.1062  1.9626
 1273TIP3   OH230741   7.185   4.968   5.748 -0.4403 -0.4931  0.3436
 1273TIP3    H130742   7.150   4.887   5.712  0.5762  0.0305 -1.9767
 1273TIP3    H230743   7.242   5.003   5.679  2.1740  0.2659  2.6864
 1274TIP3   OH230744   5.996   1.676   0.796  0.1590  0.0854 -0.2461
 1274TIP3    H130745   5.972   1.737   0.866  2.1812  2.0278 -1.1456
 1274TIP3    H230746   5.931   1.691   0.728  0.8373  1.5602 -0.6018
 1275TIP3   OH230747   1.058   7.465   5.831  0.0249  0.0211  0.5437
 1275TIP3    H130748   1.097   7.445   5.746  0.2111  2.2694  0.0332
 1275TIP3    H230749   0.965   7.480   5.812  0.2399  1.4829  0.5186
 1276TIP3   OH230750   0.372   3.871   5.399 -0.4229 -0.0883  0.2717
 1276TIP3    H130751   0.326   3.830   5.326  1.3755  0.9422 -1.5157
 1276TIP3    H230752   0.465   3.859   5.380  0.1100  1.1471  1.8440
 1277TIP3   OH230753   0.415   8.279   6.054  0.1181 -0.2677  0.0590
 1277TIP3    H130754   0.381   8.333   5.982  0.2910  2.3046  1.7819
 1277TIP3    H230755   0.472   8.215   6.011  2.1946  2.6947 -1.9590
 1278TIP3   OH230756   3.551   0.123   0.222  0.4399  0.5780 -0.9649
 1278TIP3    H130757   3.599   0.145   0.141 -0.1442  2.4020 -0.8717
 1278TIP3    H230758   3.578   0.191   0.284  1.3848 -1.1554  0.6442
 1279TIP3   OH230759   0.152   0.884   6.195  0.5971  0.0097 -0.0090
 1279TIP3    H130760   0.158   0.953   6.261 -0.9378 -0.0918  0.2800
 1279TIP3    H230761   0.217   0.907   6.129  0.4931  1.4294  0.3658
 1280TIP3   OH230762   5.015   5.587   5.820  0.4869  0.0913  0.2676
 1280TIP3    H130763   5.068   5.663   5.797  1.8763 -0.1053  2.5668
 1280TIP3    H230764   5.055   5.514   5.772  1.3790  0.2247  0.7788
 1281TIP3   OH230765   5.297   1.087   6.222  0.0711  0.0653 -1.0473
 1281TIP3    H130766   5.338   1.017   6.171 -0.1162  0.6267 -2.0110
 1281TIP3    H230767   5.337   1.167   6.188 -2.0507  0.6766 -2.3028
 1282TIP3   OH230768   2.843   4.622   0.397 -0.1936 -0.5420 -0.7091
 1282TIP3    H130769   2.762   4.586   0.434 -1.4270  1.5707 -1.1976
 1282TIP3    H230770   2.844   4.590   0.307 -0.7213 -0.2633 -0.8204
 1283TIP3   OH230771   7.765   7.843   6.371 -0.1202  0.6314 -0.7860
 1283TIP3    H130772   7.856   7.870   6.378  0.3659 -1.1203  0.1879
 1283TIP3    H230773   7.715   7.920   6.400  1.1329  1.0075  0.5260
 1284TIP3   OH230774   7.787   8.039   1.651 -0.7990  0.6259 -0.4996
 1284TIP3    H130775   7.778   8.060   1.559  0.6908 -0.3113 -0.8882
 1284TIP3    H230776   7.702   8.003   1.676 -0.6318 -0.9675 -2.0321
 1285TIP3   OH230777   2.362   2.307   6.421  0.3180 -0.3969  0.1932
 1285TIP3    H130778   2.446   2.321   6.465  0.2261 -0.0244  0.2518
 1285TIP3    H230779   2.352   2.212   6.418  1.1914 -0.4804 -0.6582
 1286TIP3   OH230780   4.042   0.218   0.100 -0.3153 -0.2255 -0.4350
 1286TIP3    H130781   4.109   0.239   0.036 -0.1905 -1.3587 -0.6912
 1286TIP3    H230782   4.079   0.146   0.152 -1.3737 -0.9894 -0.6961
 1287TIP3   OH230783   2.164   0.970   6.326 -0.2650  0.1380 -0.0116
 1287TIP3    H130784   2.173   1.038   6.258  0.1344  1.0384  0.9201
 1287TIP3    H230785   2.113   1.012   6.395 -0.0062 -0.5162  0.5844
 1288TIP3   OH230786   7.907   7.552   6.076 -0.2933  0.0330 -0.0042
 1288TIP3    H130787   7.863   7.636   6.087  0.8643  1.4060 -4.0826
 1288TIP3    H230788   7.997   7.567   6.107 -0.6423 -0.4171  1.2680
 1289TIP3   OH230789   5.761   7.006   0.188 -0.0373 -0.2236 -0.5205
 1289TIP3    H130790   5.790   7.092   0.158  2.3486 -0.4728  0.8663
 1289TIP3    H230791   5.832   6.947   0.165  0.2021 -1.0787  2.0331
 1290TIP3   OH230792   2.286   8.502   0.010 -0.0936  0.4085  0.4611
 1290TIP3    H130793   2.339   0.012   0.076 -0.0272  2.0513 -0.6564
 1290TIP3    H230794   2.214   8.464   0.059  1.1906 -0.4245  1.7864
 1291TIP3   OH230795   0.581   8.129   0.785  0.3548 -0.3349 -0.0150
 1291TIP3    H130796   0.579   8.155   0.877  0.5830  2.3691 -0.6783
 1291TIP3    H230797   0.636   8.196   0.743 -0.4683 -0.9757 -2.2487
 1292TIP3   OH230798   8.003   5.444   5.024  0.6207 -0.5492 -0.0589
 1292TIP3    H130799   8.074   5.496   5.062  0.4844  0.3936 -1.0400
 1292TIP3    H230800   7.930   5.505   5.017  0.6933 -0.6176 -1.9777
 1293TIP3   OH230801   3.844   0.114   6.148  0.2822  0.3108 -0.3117
 1293TIP3    H130802   3.807   0.186   6.097 -1.3748  0.2687  0.7503
 1293TIP3    H230803   3.768   0.073   6.189  1.3229 -1.2649  0.1155
 1294TIP3   OH230804   3.886   4.356   1.261 -0.2109  0.3339  0.4454
 1294TIP3    H130805   3.814   4.296   1.278 -1.3672  1.6353  0.2810
 1294TIP3    H230806   3.963   4.311   1.295 -1.0721 -1.1291  0.5341
 1295TIP3   OH230807   5.005   3.601   0.333  0.7558 -0.0164  0.1361
 1295TIP3    H130808   4.915   3.611   0.302  1.3254  0.7422 -1.4294
 1295TIP3    H230809   5.009   3.652   0.414 -0.3072 -0.3443  0.4042
 1296TIP3   OH230810   2.157   5.725   5.905  0.2238 -0.4161  0.5032
 1296TIP3    H130811   2.086   5.769   5.857 -0.4437  1.0672  2.7349
 1296TIP3    H230812   2.187   5.789   5.969  0.9174 -2.3763  2.2560
 1297TIP3   OH230813   5.013   3.577   5.304  0.0257  0.3489 -0.4023
 1297TIP3    H130814   5.021   3.494   5.258  0.3811  0.7705 -1.1046
 1297TIP3    H230815   4.933   3.616   5.269  0.1389  0.5359 -0.4558
 1298TIP3   OH230816   6.191   4.966   0.489 -0.5891 -0.3395  0.0204
 1298TIP3    H130817   6.231   4.947   0.574  0.2551 -1.6942 -0.6414
 1298TIP3    H230818   6.208   5.059   0.475 -1.7809  0.2067  1.8389
 1299TIP3   OH230819   7.030   7.810   1.326  0.0900 -0.2305 -0.1330
 1299TIP3    H130820   7.117   7.800   1.286  0.0824 -1.4883  0.1412
 1299TIP3    H230821   7.046   7.864   1.403  0.3289  1.0301 -1.0175
 1300TIP3   OH230822   6.703   4.144   1.001  0.3226 -0.0766 -0.2950
 1300TIP3    H130823   6.769   4.213   0.989 -1.4723  1.5573 -1.4071
 1300TIP3    H230824   6.682   4.116   0.912  0.7856 -1.8965  0.1316
 1301TIP3   OH230825   7.067   3.239   5.458 -0.0331 -0.0175 -0.8482
 1301TIP3    H130826   7.066   3.286   5.541 -1.9617 -0.7926 -0.3805
 1301TIP3    H230827   7.151   3.262   5.418  0.2807  1.5536  0.6191
 1302TIP3   OH230828   4.162   3.987   5.834  0.8767 -0.7126 -0.9468
 1302TIP3    H130829   4.215   3.977   5.913  0.7492 -1.2923 -0.9272
 1302TIP3    H230830   4.154   4.081   5.821  1.0259 -0.6179 -0.3532
 1303TIP3   OH230831   6.788   5.564   0.382  0.2509 -0.2401  0.0983
 1303TIP3    H130832   6.823   5.624   0.448  1.8470 -0.1614 -0.7568
 1303TIP3    H230833   6.738   5.500   0.431  0.8320  0.2037  1.3152
 1304TIP3   OH230834   6.890   6.523   6.475  0.4640  0.8123  0.7243
 1304TIP3    H130835   6.913   6.434   6.502 -0.3674  0.5443  0.5740
 1304TIP3    H230836   6.913   6.527   6.382 -2.6746 -0.4081 -0.2076
 1305TIP3   OH230837   6.450   1.139   0.805 -0.1386  0.3339 -0.0170
 1305TIP3    H130838   6.517   1.181   0.752 -0.7130  1.1255 -0.1313
 1305TIP3    H230839   6.380   1.117   0.743 -0.6008  0.8205  0.3247
 1306TIP3   OH230840   1.674   5.412   6.874 -0.4026  0.1983 -0.1635
 1306TIP3    H130841   1.674   5.372   6.961  0.5571 -0.8004 -0.6012
 1306TIP3    H230842   1.672   5.506   6.891 -1.2660  0.0003  0.9120
 1307TIP3   OH230843   4.694   1.607   0.827  0.2111  0.0017 -0.2422
 1307TIP3    H130844   4.788   1.624   0.819  0.1650  0.3519 -0.0480
 1307TIP3    H230845   4.688   1.535   0.889  0.3423  0.1016 -0.1132
 1308TIP3   OH230846   7.450   2.924   1.136 -0.2107 -0.6894  0.2635
 1308TIP3    H130847   7.466   2.912   1.043 -1.5526 -0.1826 -0.0530
 1308TIP3    H230848   7.420   3.014   1.145  3.2801  0.4986  1.7073
 1309TIP3   OH230849   1.846   2.278   0.855 -0.1972 -0.4137  0.0081
 1309TIP3    H130850   1.805   2.350   0.808 -2.8937 -2.0388 -0.3223
 1309TIP3    H230851   1.928   2.263   0.808 -0.2469  1.4813 -0.7770
 1310TIP3   OH230852   1.035   5.537   6.210  0.5235 -0.1117 -0.8022
 1310TIP3    H130853   1.120   5.559   6.171  0.7430 -1.3336 -1.0731
 1310TIP3    H230854   1.022   5.444   6.188 -1.2282  0.2402 -1.4058
 1311TIP3   OH230855   6.397   0.460   6.532  0.0770 -0.1246 -0.0010
 1311TIP3    H130856   6.361   0.432   6.448 -2.6044 -0.4863  1.1601
 1311TIP3    H230857   6.345   0.536   6.557  0.9009  0.0603  1.2635
 1312TIP3   OH230858   8.440   4.693   0.467 -0.2828 -0.3035 -0.4110
 1312TIP3    H130859   8.496   4.647   0.405  0.9583  0.7395 -0.0955
 1312TIP3    H230860   8.463   4.656   0.552  0.3510  0.5285 -0.2147
 1313TIP3   OH230861   3.417   6.610   6.918 -0.0552 -0.0084 -1.0612
 1313TIP3    H130862   3.436   6.525   6.956  0.2179  1.4277  2.4200
 1313TIP3    H230863   3.501   6.655   6.915 -0.2161  0.2459 -2.7201
 1314TIP3   OH230864   2.472   7.047   1.467 -0.9213  0.0260 -0.0386
 1314TIP3    H130865   2.436   7.093   1.543 -0.0863  1.1952 -0.3154
 1314TIP3    H230866   2.555   7.092   1.449  0.6883 -2.4873  0.5319
 1315TIP3   OH230867   4.742   3.820   0.106 -0.4480  0.2924 -0.3870
 1315TIP3    H130868   4.770   3.732   0.131 -0.8154  0.0835 -0.6955
 1315TIP3    H230869   4.823   3.866   0.083 -0.3294 -0.2451 -1.0812
 1316TIP3   OH230870   5.475   4.019   2.303 -0.3457 -0.0005  0.3378
 1316TIP3    H130871   5.430   4.059   2.378  2.4747  2.4007  0.9588
 1316TIP3    H230872   5.479   4.089   2.238  1.5727 -0.3720 -0.0134
 1317TIP3   OH230873   3.204   0.397   0.449 -0.2458 -0.0244 -0.3356
 1317TIP3    H130874   3.154   0.473   0.418  1.3056  0.6172 -1.4057
 1317TIP3    H230875   3.149   0.322   0.427 -1.0189  0.6902 -0.9183
 1318TIP3   OH230876   4.395   7.558   0.304 -0.4937 -0.1154 -0.4508
 1318TIP3    H130877   4.462   7.493   0.326 -1.3616 -0.8288  0.1384
 1318TIP3    H230878   4.444   7.629   0.262  0.7366 -0.2910  0.6071
 1319TIP3   OH230879   1.828   7.170   0.843 -0.3102  0.0482 -0.1419
 1319TIP3    H130880   1.793   7.251   0.881 -2.0294  0.2990 -2.0603
 1319TIP3    H230881   1.846   7.114   0.918  0.0108  1.8333  1.1957
 1320TIP3   OH230882   0.847   0.675   1.125 -0.1635  0.1966  0.0102
 1320TIP3    H130883   0.906   0.740   1.164  0.1568  1.5677 -2.5240
 1320TIP3    H230884   0.900   0.634   1.056 -1.4314 -0.3250 -0.6762
 1321TIP3   OH230885   8.222   5.551   6.843  0.5679 -0.0367 -0.3893
 1321TIP3    H130886   8.162   5.568   6.916 -1.0535 -1.4227 -1.3271
 1321TIP3    H230887   8.276   5.478   6.874  2.5121  1.7936  0.8094
 1322TIP3   OH230888   2.802   4.080   6.915 -0.1711 -0.7774 -0.0310
 1322TIP3    H130889   2.788   4.174   6.929  1.2631 -0.4705 -0.4425
 1322TIP3    H230890   2.778   4.040   6.998 -2.4633 -0.2720 -0.3882
 1323TIP3   OH230891   8.180   3.212   6.825  0.5216 -0.0827  0.1898
 1323TIP3    H130892   8.238   3.179   6.756  0.4229 -1.1690  0.6060
 1323TIP3    H230893   8.099   3.163   6.813  0.8132 -0.9678  1.6355
 1324TIP3   OH230894   1.722   0.084   6.372  0.2314 -0.0239 -0.3628
 1324TIP3    H130895   1.654   0.150   6.361  2.1382  2.0007 -0.6662
 1324TIP3    H230896   1.738   0.052   6.283  0.9544  0.8733 -0.5648
 1325TIP3   OH230897   8.020   3.933   5.709 -0.5907 -0.3901  0.1121
 1325TIP3    H130898   8.096   3.934   5.767 -0.0588 -0.6292 -0.5603
 1325TIP3    H230899   8.057   3.932   5.621 -1.3821  1.2301 -0.2773
 1326TIP3   OH230900   5.218   0.747   5.881  0.3683  0.0461  0.5168
 1326TIP3    H130901   5.221   0.697   5.799  0.8374  2.4339 -1.0179
 1326TIP3    H230902   5.140   0.714   5.926 -0.7038 -0.3993 -1.5336
 1327TIP3   OH230903   3.112   2.213   1.276 -0.1993  0.6109 -0.6717
 1327TIP3    H130904   3.099   2.298   1.234 -1.2307  0.7392 -0.1207
 1327TIP3    H230905   3.042   2.207   1.340  1.5002  0.5418  1.2677
 1328TIP3   OH230906   8.114   5.534   6.545  0.2946 -0.1683 -0.2409
 1328TIP3    H130907   8.037   5.588   6.565  0.5458 -0.3472  1.2879
 1328TIP3    H230908   8.161   5.528   6.628  1.4105 -0.9494 -0.9143
 1329TIP3   OH230909   7.409   3.986   6.165  0.9683 -0.0767 -0.3634
 1329TIP3    H130910   7.416   4.069   6.119 -0.2741 -0.2681 -0.9133
 1329TIP3    H230911   7.495   3.944   6.152  1.3724  0.8202 -0.6336
 1330TIP3   OH230912   3.714   5.554   0.653  0.3496  0.2939  0.5112
 1330TIP3    H130913   3.639   5.568   0.596  1.4613 -1.2129 -1.4640
 1330TIP3    H230914   3.683   5.492   0.719 -0.9699  2.0948  1.6589
 1331TIP3   OH230915   8.440   1.471   0.638  0.0197  0.2035  0.6044
 1331TIP3    H130916   8.388   1.548   0.664 -1.3358 -0.6569  0.5833
 1331TIP3    H230917   8.374   1.405   0.617  1.1117 -0.1078 -2.1282
 1332TIP3   OH230918   1.881   3.215   0.444 -0.1287  0.0425  0.0732
 1332TIP3    H130919   1.944   3.179   0.506 -0.0050 -1.7989 -1.0531
 1332TIP3    H230920   1.935   3.259   0.378  0.0606 -1.6363 -0.9561
 1333TIP3   OH230921   8.120   7.694   5.675 -0.4504  0.3130 -0.1679
 1333TIP3    H130922   8.128   7.632   5.603 -0.5228  0.3948 -0.2468
 1333TIP3    H230923   8.029   7.725   5.670 -0.0844  1.3140 -0.8562
 1334TIP3   OH230924   5.102   5.400   0.167  0.1851 -0.1726 -0.2686
 1334TIP3    H130925   5.027   5.384   0.110  0.1761 -1.2035  0.0132
 1334TIP3    H230926   5.178   5.380   0.113  0.2587  0.5617 -0.4532
 1335TIP3   OH230927   2.888   6.810   5.717  0.4004 -0.4354 -0.3436
 1335TIP3    H130928   2.819   6.873   5.695 -0.5669 -0.1227  2.9834
 1335TIP3    H230929   2.848   6.724   5.699 -0.0335 -0.1974 -0.5336
 1336TIP3   OH230930   4.130   2.591   6.008 -0.6704  0.4110 -0.4336
 1336TIP3    H130931   4.159   2.509   6.048  0.2391  1.2118  0.6262
 1336TIP3    H230932   4.202   2.616   5.951 -0.4401  1.0363  0.1213
 1337TIP3   OH230933   1.068   1.372   6.022 -0.2089  0.4121 -0.3483
 1337TIP3    H130934   1.017   1.453   6.021  1.2308  1.3510 -0.6353
 1337TIP3    H230935   1.065   1.341   5.931 -1.5535 -0.4106 -0.0541
 1338TIP3   OH230936   3.162   5.775   0.040  0.2455  0.1531  1.1062
 1338TIP3    H130937   3.066   5.770   0.041  0.3069 -1.3120  1.2249
 1338TIP3    H230938   3.181   5.845   7.048 -0.8710 -0.7890 -0.3616
 1339TIP3   OH230939   4.451   2.648   0.774 -0.4046  1.2285  0.2036
 1339TIP3    H130940   4.467   2.592   0.698 -0.5714 -0.6074  1.4649
 1339TIP3    H230941   4.466   2.737   0.742  0.3777  0.4431 -1.7444
 1340TIP3   OH230942   2.929   3.625   0.380  0.3358 -0.7779 -0.4971
 1340TIP3    H130943   2.964   3.541   0.349 -1.1945 -1.7408  0.2965
 1340TIP3    H230944   2.909   3.610   0.472  1.1291  0.8420 -0.0168
 1341TIP3   OH230945   4.763   0.254   6.092  0.0460  0.0021  0.0933
 1341TIP3    H130946   4.791   0.196   6.021 -0.1748  0.9792 -0.8210
 1341TIP3    H230947   4.691   0.305   6.054  0.5103  1.1705  0.7255
 1342TIP3   OH230948   3.321   1.765   6.419  0.1404 -0.4429  0.0116
 1342TIP3    H130949   3.360   1.803   6.498 -1.1389 -1.2382  1.0626
 1342TIP3    H230950   3.356   1.676   6.415 -0.5793 -0.7412  0.2569
 1343TIP3   OH230951   5.608   7.029   1.570 -0.4449  0.2786 -0.2442
 1343TIP3    H130952   5.517   7.054   1.558 -0.4977  0.2561  0.0908
 1343TIP3    H230953   5.616   7.012   1.664  0.3221  1.9779  0.0475
 1344TIP3   OH230954   5.480   4.503   6.390  0.0472 -1.0075 -0.2567
 1344TIP3    H130955   5.396   4.509   6.435 -0.0203 -4.2968  0.3235
 1344TIP3    H230956   5.481   4.415   6.351  2.8279 -0.7499 -1.0437
 1345TIP3   OH230957   7.385   0.554   6.866  0.1446  0.0180 -0.0144
 1345TIP3    H130958   7.398   0.648   6.850 -3.3135  0.2861 -2.3023
 1345TIP3    H230959   7.295   0.548   6.899  0.0331 -2.5270 -0.6005
 1346TIP3   OH230960   6.151   4.502   6.721 -0.2462  0.0688  0.1616
 1346TIP3    H130961   6.163   4.597   6.730  1.0979 -0.0922  0.2932
 1346TIP3    H230962   6.235   4.465   6.750 -1.5744 -1.2936  2.6230
 1347TIP3   OH230963   5.840   3.085   1.838 -0.1077  0.2634 -0.1165
 1347TIP3    H130964   5.807   3.026   1.906 -0.3728 -0.5210 -0.9098
 1347TIP3    H230965   5.786   3.164   1.846 -2.0605 -0.8958 -1.2300
 1348TIP3   OH230966   0.169   8.137   0.988 -0.8123  0.1679 -0.1747
 1348TIP3    H130967   0.193   8.045   1.000 -1.4405  0.1092  0.7558
 1348TIP3    H230968   0.203   8.181   1.066 -1.4447  0.5287 -0.0964
 1349TIP3   OH230969   4.483   7.779   5.600  0.1242 -0.2606  0.7435
 1349TIP3    H130970   4.502   7.794   5.507  0.1294 -0.3206  0.7348
 1349TIP3    H230971   4.392   7.807   5.610  0.1209 -0.2619  0.7183
 1350TIP3   OH230972   0.270   3.091   0.995  0.1114  0.6542  0.4199
 1350TIP3    H130973   0.176   3.110   0.996  0.0947  0.6416 -0.4427
 1350TIP3    H230974   0.276   3.001   0.963  0.3327  0.0274  2.1433
 1351TIP3   OH230975   8.341   3.614   0.831  0.4156  0.3593  0.5889
 1351TIP3    H130976   8.267   3.560   0.859  0.7058 -0.8671 -0.8740
 1351TIP3    H230977   8.417   3.575   0.873  0.3713  1.1101  1.4146
 1352TIP3   OH230978   5.240   0.950   5.430 -0.0768  0.4180 -0.1142
 1352TIP3    H130979   5.286   0.990   5.356  0.9635  1.1663  0.9003
 1352TIP3    H230980   5.162   1.004   5.441 -0.3598  0.1651 -0.7861
 1353TIP3   OH230981   6.217   6.863   0.695 -0.6475 -0.2629 -0.3216
 1353TIP3    H130982   6.221   6.959   0.693 -0.4060 -0.2742 -0.5545
 1353TIP3    H230983   6.267   6.839   0.773 -0.4969 -0.2059 -0.3993
 1354TIP3   OH230984   8.275   2.317   6.063 -0.0452  0.6442 -0.0261
 1354TIP3    H130985   8.198   2.366   6.033 -2.0395 -2.2828 -0.0389
 1354TIP3    H230986   8.279   2.335   6.157 -0.2184  1.4582 -0.1645
 1355TIP3   OH230987   0.983   6.655   0.515 -0.5740 -0.2740  0.4471
 1355TIP3    H130988   0.923   6.610   0.456 -0.7874 -0.2401  0.6380
 1355TIP3    H230989   0.964   6.618   0.602 -0.9003  0.3319  0.6389
 1356TIP3   OH230990   0.009   6.933   0.183 -0.7064 -0.0189  0.1345
 1356TIP3    H130991   0.042   6.970   0.265 -0.6762  1.6200 -0.5634
 1356TIP3    H230992   8.451   6.919   0.199 -0.4583 -0.9361  0.8494
 1357TIP3   OH230993   3.519   2.179   6.926 -0.4351 -0.1338 -0.0700
 1357TIP3    H130994   3.603   2.223   6.932 -0.4027 -0.2066 -0.0003
 1357TIP3    H230995   3.485   2.205   6.840 -1.7923  2.4933  1.1346
 1358TIP3   OH230996   3.123   3.786   5.484 -0.2530  0.3770  0.1327
 1358TIP3    H130997   3.192   3.811   5.545  0.1481  2.0509 -0.9636
 1358TIP3    H230998   3.170   3.759   5.405 -0.7513 -2.0564  0.5572
 1359TIP3   OH230999   3.662   0.089   6.899  0.1248  0.2461 -0.1904
 1359TIP3    H131000   3.695   0.115   6.985 -0.2981 -0.5517  0.2220
 1359TIP3    H231001   3.730   0.116   6.838  1.9327 -2.0081  0.6963
 1360TIP3   OH231002   0.252   0.497   1.332  0.5993  0.2294  0.4800
 1360TIP3    H131003   0.259   0.561   1.403  0.5784  0.6670  0.0933
 1360TIP3    H231004   0.299   0.420   1.364  1.1003  0.6356  0.7298
 1361TIP3   OH231005   4.632   0.631   6.809  0.4879  0.0751 -0.6292
 1361TIP3    H131006   4.692   0.634   6.735  1.0757 -0.4163 -0.1852
 1361TIP3    H231007   4.681   0.586   6.877 -0.5748 -0.8133 -0.4294
 1362TIP3   OH231008   1.795   2.266   6.417  0.3774 -0.4619  0.4275
 1362TIP3    H131009   1.748   2.348   6.402  1.4505 -0.0237 -0.7147
 1362TIP3    H231010   1.768   2.238   6.505 -1.0196  0.4168  0.2980
 1363TIP3   OH231011   5.911   7.735   6.256  0.4328 -0.3350 -0.0307
 1363TIP3    H131012   5.846   7.730   6.326 -0.0942 -1.3530 -0.5712
 1363TIP3    H231013   5.995   7.737   6.303  0.0409  2.0305  0.7071
 1364TIP3   OH231014   8.134   0.244   6.457  0.2892  0.1288  0.0342
 1364TIP3    H131015   8.160   0.162   6.499  0.0725  0.3567  0.6256
 1364TIP3    H231016   8.209   0.268   6.403  0.7731  0.0795  0.6743
 1365TIP3   OH231017   7.731   2.665   6.076  0.3847 -0.0547 -0.8078
 1365TIP3    H131018   7.654   2.702   6.121 -1.0631  1.1113 -3.9218
 1365TIP3    H231019   7.743   2.579   6.117  0.1670  1.3811  2.6825
 1366TIP3   OH231020   2.146   5.106   7.012 -0.0513 -0.0416 -0.1364
 1366TIP3    H131021   2.193   5.131   0.020  2.3327 -1.8199 -0.8403
 1366TIP3    H231022   2.084   5.177   6.996  0.0361  0.7987  2.7659
 1367TIP3   OH231023   2.392   7.321   5.462 -0.5072  0.2102  0.4262
 1367TIP3    H131024   2.300   7.329   5.489 -0.7712 -0.2094 -0.3149
 1367TIP3    H231025   2.433   7.271   5.533 -0.7385  0.7914  0.9811
 1368TIP3   OH231026   8.171   8.127   5.481 -0.1272  0.7986 -0.2989
 1368TIP3    H131027   8.112   8.111   5.408 -0.5152  1.9770 -0.2763
 1368TIP3    H231028   8.138   8.209   5.520  0.9500  0.9706  0.2903
 1369TIP3   OH231029   1.148   0.957   0.207  0.4045 -0.3320  0.0188
 1369TIP3    H131030   1.110   0.884   0.158 -0.4461  0.0952  0.0243
 1369TIP3    H231031   1.203   0.915   0.274  0.3505 -0.9463 -0.3106
 1370TIP3   OH231032   6.166   0.709   0.892 -0.3246  0.4645  0.3740
 1370TIP3    H131033   6.226   0.780   0.915 -1.2595  1.5570 -0.4612
 1370TIP3    H231034   6.098   0.713   0.959  0.2423 -0.4620  1.0360
 1371TIP3   OH231035   2.560   1.226   5.799  0.2543  0.5074 -0.2309
 1371TIP3    H131036   2.469   1.249   5.785  0.2504 -0.0820 -1.2419
 1371TIP3    H231037   2.610   1.295   5.755  0.2748  0.0716 -0.8975
 1372TIP3   OH231038   0.967   4.977   0.184  0.1431  0.4309  0.0294
 1372TIP3    H131039   0.895   4.988   0.247  0.5223  2.1036  0.2430
 1372TIP3    H231040   0.940   4.904   0.129 -1.3697  0.5260  0.5833
 1373TIP3   OH231041   7.169   0.055   1.596 -0.1545  0.1971 -0.5628
 1373TIP3    H131042   7.238   0.120   1.583  0.9665 -0.8434 -0.0357
 1373TIP3    H231043   7.157   0.051   1.690 -0.9588  0.3760 -0.6536
 1374TIP3   OH231044   2.754   7.881   0.649 -0.1124  0.3695 -0.2876
 1374TIP3    H131045   2.752   7.852   0.740  0.7375  1.5105  0.1224
 1374TIP3    H231046   2.719   7.970   0.651 -1.3948 -0.0922 -1.2989
 1375TIP3   OH231047   0.484   6.988   0.089 -0.9356 -0.3638 -0.2366
 1375TIP3    H131048   0.497   7.068   0.038  0.0609  0.2132  0.8601
 1375TIP3    H231049   0.396   6.958   0.065 -1.1244  0.7731 -1.0507
 1376TIP3   OH231050   4.450   3.172   6.138 -0.0902 -0.5054  0.4080
 1376TIP3    H131051   4.536   3.139   6.111  0.6845  0.8713  1.0884
 1376TIP3    H231052   4.450   3.264   6.110 -1.0166 -0.2755  1.1371
 1377TIP3   OH231053   2.441   0.684   0.818  0.5164  0.5438  0.3158
 1377TIP3    H131054   2.347   0.679   0.800  1.1142 -1.9381 -3.2743
 1377TIP3    H231055   2.462   0.601   0.861  1.3257  0.0348 -0.9888
 1378TIP3   OH231056   1.385   2.399   6.090  0.3920 -0.4027 -0.7215
 1378TIP3    H131057   1.320   2.412   6.021  0.2424  0.4848 -0.4314
 1378TIP3    H231058   1.409   2.488   6.118 -1.0335 -0.6937  1.7494
 1379TIP3   OH231059   7.532   8.503   4.955  0.6419 -0.3147 -0.0040
 1379TIP3    H131060   7.451   0.007   4.987  1.7142  1.5906  0.5283
 1379TIP3    H231061   7.532   8.415   4.992 -0.9563 -0.1989  0.3536
 1380TIP3   OH231062   7.072   4.977   0.276 -0.1969 -0.0350  0.2813
 1380TIP3    H131063   7.078   4.955   0.369 -1.7315 -0.6411  0.2526
 1380TIP3    H231064   7.151   4.939   0.238 -0.8531 -2.1201  0.9034
 1381TIP3   OH231065   6.227   3.718   5.721 -0.5385 -0.1857  0.0851
 1381TIP3    H131066   6.271   3.777   5.782  0.2017 -1.3534  0.7133
 1381TIP3    H231067   6.280   3.639   5.721  0.0088  0.0842 -2.8076
 1382TIP3   OH231068   2.568   6.865   6.614 -0.7416 -0.3656  0.4353
 1382TIP3    H131069   2.602   6.791   6.665  0.4686 -1.3141 -1.6159
 1382TIP3    H231070   2.583   6.840   6.523 -1.9149  1.6799 -0.3825
 1383TIP3   OH231071   4.310   5.468   6.342 -0.4319  0.4426 -0.6109
 1383TIP3    H131072   4.350   5.460   6.256  0.9926  0.9621 -0.0259
 1383TIP3    H231073   4.332   5.386   6.386 -0.0325  0.7103 -0.3036
 1384TIP3   OH231074   7.218   6.415   5.718 -0.3696 -0.0463  0.4574
 1384TIP3    H131075   7.218   6.479   5.647 -1.5653 -0.2459  0.2456
 1384TIP3    H231076   7.263   6.339   5.683 -1.7351 -0.4802 -0.4490
 1385TIP3   OH231077   6.573   5.871   6.576  0.0219  0.2941 -0.3193
 1385TIP3    H131078   6.659   5.845   6.541 -0.1698 -0.9886  0.1062
 1385TIP3    H231079   6.517   5.795   6.560 -0.4692  0.2545  1.3621
 1386TIP3   OH231080   6.228   1.681   1.084 -0.2435 -0.3153 -0.2937
 1386TIP3    H131081   6.192   1.769   1.069  0.8990  0.1928 -0.1378
 1386TIP3    H231082   6.229   1.640   0.998 -0.7343 -0.1699 -0.3736
 1387TIP3   OH231083   7.905   5.687   5.933  0.0229  0.4761  0.4108
 1387TIP3    H131084   7.900   5.616   5.870 -2.2522  1.0902 -0.1763
 1387TIP3    H231085   7.998   5.710   5.937  0.7704 -2.2192  0.3311
 1388TIP3   OH231086   6.929   4.956   6.159  0.1792 -0.2274 -0.0531
 1388TIP3    H131087   6.837   4.932   6.146  0.2034 -1.9448  2.4195
 1388TIP3    H231088   6.974   4.917   6.084 -0.8113 -1.3822 -0.0834
 1389TIP3   OH231089   2.012   8.064   6.934 -0.1075  0.3637  0.6336
 1389TIP3    H131090   1.954   7.990   6.948 -2.0201  1.5841 -0.3000
 1389TIP3    H231091   2.036   8.094   7.022 -1.5737  0.3022  1.0769
 1390TIP3   OH231092   2.923   2.598   6.690  0.3643 -0.7228  0.2411
 1390TIP3    H131093   2.937   2.661   6.619 -1.8744 -0.8441 -0.4031
 1390TIP3    H231094   2.929   2.512   6.647  1.4549 -0.9066  0.7267
 1391TIP3   OH231095   2.023   2.081   1.074  0.2681 -0.2593  0.2606
 1391TIP3    H131096   1.927   2.072   1.070  0.2690 -0.9523  1.4627
 1391TIP3    H231097   2.036   2.173   1.096 -0.0246  0.3807 -1.9260
 1392TIP3   OH231098   0.398   2.457   6.310 -0.3247  0.0631 -0.5065
 1392TIP3    H131099   0.470   2.418   6.261 -1.2615 -2.3791 -0.0955
 1392TIP3    H231100   0.398   2.549   6.285  1.0551 -0.4939 -2.7855
 1393TIP3   OH231101   0.225   8.535   0.043 -0.0444 -0.6672  0.1824
 1393TIP3    H131102   0.133   0.022   0.033  0.2556 -0.0128 -1.3915
 1393TIP3    H231103   0.265   0.079   0.079  0.1472 -0.4132 -0.5697
 1394TIP3   OH231104   5.268   2.189   0.859  0.5626 -0.1447  0.7229
 1394TIP3    H131105   5.336   2.122   0.853 -2.2057 -3.0666 -2.2779
 1394TIP3    H231106   5.299   2.261   0.804  1.1464 -1.5821 -0.9070
 1395TIP3   OH231107   4.283   4.284   6.065  0.3638  0.0413 -0.3453
 1395TIP3    H131108   4.240   4.208   6.104  0.5040 -0.9985 -2.0610
 1395TIP3    H231109   4.284   4.350   6.134 -0.0810 -1.3918  1.0992
 1396TIP3   OH231110   0.666   6.374   6.417  0.4532 -0.0230  0.6383
 1396TIP3    H131111   0.705   6.398   6.334 -0.8443 -0.0684 -0.0136
 1396TIP3    H231112   0.740   6.361   6.476  1.7771 -3.8809 -1.4799
 1397TIP3   OH231113   1.606   4.568   1.147  0.1112  0.2657 -0.2941
 1397TIP3    H131114   1.572   4.638   1.090  0.2806  1.5172  1.1005
 1397TIP3    H231115   1.610   4.607   1.234 -1.1456 -1.9077  0.8442
 1398TIP3   OH231116   4.767   5.528   0.502  0.1050 -0.4027  0.2819
 1398TIP3    H131117   4.786   5.452   0.447  0.7273  0.0609 -0.1586
 1398TIP3    H231118   4.800   5.503   0.589  1.2683 -0.2469 -0.1000
 1399TIP3   OH231119   8.506   7.363   0.249  0.6078  0.1332 -0.1737
 1399TIP3    H131120   8.534   7.278   0.214  0.2438 -0.6437  1.3335
 1399TIP3    H231121   0.046   7.420   0.237  0.0598  0.3488 -3.4473
 1400TIP3   OH231122   1.461   3.750   1.082  0.6807 -0.6393 -0.7737
 1400TIP3    H131123   1.393   3.817   1.088  2.5302  1.4470 -1.8695
 1400TIP3    H231124   1.496   3.744   1.171 -0.9121 -1.8227 -0.1643
 1401TIP3   OH231125   1.026   7.017   5.661 -0.0682  0.2910  1.1785
 1401TIP3    H131126   1.074   7.085   5.706 -0.6818  0.4892  1.5430
 1401TIP3    H231127   1.051   6.936   5.706 -0.2384  0.4174  1.4991
 1402TIP3   OH231128   4.149   6.126   1.454  0.0282  0.3999 -0.0897
 1402TIP3    H131129   4.202   6.204   1.439 -0.1441  0.5735  0.1803
 1402TIP3    H231130   4.206   6.067   1.504  0.9626 -0.6073 -2.2375
 1403TIP3   OH231131   2.255   1.246   0.504  0.4421  0.2142  0.0777
 1403TIP3    H131132   2.338   1.260   0.549 -0.2894 -0.1475  1.6159
 1403TIP3    H231133   2.192   1.234   0.574 -0.8849  0.2726 -1.0625
 1404TIP3   OH231134   7.331   1.691   0.170  0.0095 -0.0286  0.1793
 1404TIP3    H131135   7.394   1.668   0.237  0.3960  1.8293  0.5274
 1404TIP3    H231136   7.377   1.756   0.115 -1.6399  1.6416  0.6478
 1405TIP3   OH231137   5.866   5.009   6.409 -0.0832 -0.3364  0.1501
 1405TIP3    H131138   5.788   4.972   6.367 -1.2129  0.6948  1.2530
 1405TIP3    H231139   5.886   4.950   6.481  0.2079 -0.6484 -0.1866
 1406TIP3   OH231140   4.702   3.680   1.762  0.4779  0.3688  0.8361
 1406TIP3    H131141   4.743   3.618   1.702  0.3968  2.2978 -1.3450
 1406TIP3    H231142   4.624   3.634   1.794  0.0415 -0.4723 -1.2293
 1407TIP3   OH231143   7.692   4.518   1.422 -0.1946 -0.2468 -0.1736
 1407TIP3    H131144   7.679   4.520   1.517 -0.7569  4.0371 -0.1781
 1407TIP3    H231145   7.787   4.525   1.410 -0.1092 -0.9640  0.0232
 1408TIP3   OH231146   8.251   5.956   1.445  0.6036  0.1674 -0.6037
 1408TIP3    H131147   8.213   5.948   1.358 -0.7446  1.3360 -0.1653
 1408TIP3    H231148   8.263   6.050   1.458  1.4184 -0.0296  0.2111
 1409TIP3   OH231149   4.530   4.787   0.146  0.5163 -0.5317 -0.4891
 1409TIP3    H131150   4.521   4.812   0.238  1.7261 -1.3600 -0.1264
 1409TIP3    H231151   4.613   4.827   0.118 -0.5003  0.8936 -1.6507
 1410TIP3   OH231152   1.215   5.090   6.316  0.3778 -0.3872  0.0749
 1410TIP3    H131153   1.120   5.088   6.304  0.2574 -1.2399  1.0925
 1410TIP3    H231154   1.250   5.066   6.230 -0.3358 -0.6467 -0.1528
 1411TIP3   OH231155   2.371   0.990   0.159 -0.6273 -0.1386 -0.6589
 1411TIP3    H131156   2.299   1.050   0.144 -0.6670  0.1194  0.4559
 1411TIP3    H231157   2.437   1.041   0.206 -1.0227 -1.1329  1.0974
 1412TIP3   OH231158   1.347   2.510   5.581 -0.3601  0.5332  0.1030
 1412TIP3    H131159   1.321   2.461   5.503  1.5950  0.7120 -0.7222
 1412TIP3    H231160   1.373   2.442   5.645  0.5977  0.4175 -0.3873
 1413TIP3   OH231161   6.046   2.809   6.448 -0.1447 -0.2060  0.5001
 1413TIP3    H131162   6.043   2.719   6.483  1.8589 -0.1417  0.9231
 1413TIP3    H231163   6.014   2.863   6.520  0.7005 -0.4020  1.0386
 1414TIP3   OH231164   5.845   6.623   6.583 -0.6852 -0.1187 -0.7088
 1414TIP3    H131165   5.867   6.560   6.515  0.5772  0.1499 -0.5689
 1414TIP3    H231166   5.774   6.581   6.633  1.0335 -2.0660  0.2394
 1415TIP3   OH231167   1.285   3.291   0.226 -0.0967  0.1902  0.7093
 1415TIP3    H131168   1.233   3.241   0.288  0.0716  1.0228  1.5533
 1415TIP3    H231169   1.312   3.369   0.275 -0.0862  0.9488 -0.4523
 1416TIP3   OH231170   8.004   7.598   0.799 -0.2737  0.0324  0.3634
 1416TIP3    H131171   7.961   7.679   0.775 -0.8437  0.1570  1.7151
 1416TIP3    H231172   8.039   7.613   0.887  0.0168 -1.0284  0.4564
 1417TIP3   OH231173   3.569   4.429   0.081  0.0825 -0.0836 -0.3041
 1417TIP3    H131174   3.516   4.447   0.159  1.4568  0.3429  0.5734
 1417TIP3    H231175   3.601   4.340   0.093 -1.0981 -0.6617 -1.2573
 1418TIP3   OH231176   4.180   1.479   0.195  0.0486  0.0489 -0.0440
 1418TIP3    H131177   4.275   1.472   0.204 -0.1776 -3.2271  1.1443
 1418TIP3    H231178   4.164   1.475   0.101  1.0667  0.3314 -0.2346
 1419TIP3   OH231179   1.991   3.212   6.165  0.2529 -0.3309 -0.5608
 1419TIP3    H131180   2.004   3.304   6.141  0.2347  0.0482  0.8076
 1419TIP3    H231181   2.058   3.195   6.231 -0.0061 -1.1823 -0.5073
 1420TIP3   OH231182   1.239   5.411   6.910 -0.8897  0.2384  0.0246
 1420TIP3    H131183   1.286   5.357   6.973 -1.7677 -1.0261 -0.3785
 1420TIP3    H231184   1.174   5.458   6.963 -2.3858 -1.6572 -0.0132
 1421TIP3   OH231185   2.167   2.207   5.228 -0.2274  0.5750 -0.1132
 1421TIP3    H131186   2.163   2.289   5.180 -1.9853 -0.2570 -1.5165
 1421TIP3    H231187   2.079   2.171   5.221 -0.0381 -0.5040  2.1854
 1422TIP3   OH231188   2.843   1.829   1.340 -0.4157 -0.0619 -0.5221
 1422TIP3    H131189   2.793   1.749   1.359 -0.1188 -0.0753  0.2178
 1422TIP3    H231190   2.823   1.848   1.248 -0.1777 -1.2147 -0.8353
 1423TIP3   OH231191   7.116   0.245   6.741 -0.1095  0.0757  0.0750
 1423TIP3    H131192   7.156   0.159   6.730  0.5518  0.1966  1.2875
 1423TIP3    H231193   7.026   0.235   6.709 -0.6334 -1.5983  1.8706
 1424TIP3   OH231194   5.352   7.404   7.006  0.0134 -0.0059 -0.0223
 1424TIP3    H131195   5.330   7.395   6.913 -1.1669  0.4737  0.1881
 1424TIP3    H231196   5.371   7.497   7.018 -1.8632  0.3459  0.5887
 1425TIP3   OH231197   5.596   1.271   6.892 -0.4381  0.2178  0.2775
 1425TIP3    H131198   5.527   1.205   6.887  0.3207 -0.5706 -0.0441
 1425TIP3    H231199   5.588   1.321   6.811 -0.1657 -0.3522 -0.1039
 1426TIP3   OH231200   2.856   4.257   5.571 -0.1415  0.1573  0.4818
 1426TIP3    H131201   2.784   4.316   5.550 -0.4019 -0.9261 -2.1234
 1426TIP3    H231202   2.818   4.169   5.560  1.6905 -0.4497 -1.7400
 1427TIP3   OH231203   7.829   8.261   1.384  0.1092  0.4511 -0.0560
 1427TIP3    H131204   7.922   8.269   1.405  0.2971  0.4766 -0.8768
 1427TIP3    H231205   7.808   8.169   1.403 -0.2479  0.9485  2.2249
 1428TIP3   OH231206   7.978   6.554   0.038  0.0547 -0.2647  0.8861
 1428TIP3    H131207   8.056   6.502   0.057 -0.3659 -1.4368 -0.4245
 1428TIP3    H231208   7.982   6.572   7.015 -1.0110  0.0582  0.8805
 1429TIP3   OH231209   4.827   3.463   1.182 -0.7255 -0.0703  0.1538
 1429TIP3    H131210   4.870   3.492   1.101  0.8090 -0.2565  0.8736
 1429TIP3    H231211   4.874   3.509   1.252 -1.4038 -0.6473  1.0088
 1430TIP3   OH231212   8.346   7.652   0.058  0.4678 -0.1164 -0.2655
 1430TIP3    H131213   8.334   7.735   0.013  1.5987  0.3006  0.1549
 1430TIP3    H231214   8.272   7.646   0.118 -0.8430 -0.4977 -1.8670
 1431TIP3   OH231215   8.222   1.297   0.606 -0.2492 -0.2220 -0.4433
 1431TIP3    H131216   8.172   1.237   0.661  0.4419 -0.8295 -0.4711
 1431TIP3    H231217   8.252   1.244   0.533  1.9144 -0.3297  0.4421
 1432TIP3   OH231218   2.323   5.918   1.090 -0.1524  0.4405  0.1441
 1432TIP3    H131219   2.301   5.847   1.029 -1.5866  1.5316 -0.6926
 1432TIP3    H231220   2.417   5.910   1.104 -0.1741 -1.2125 -0.4342
 1433TIP3   OH231221   0.940   8.018   6.026 -0.2894 -0.0370 -0.1669
 1433TIP3    H131222   0.901   7.978   6.104 -0.1826  2.2905  1.1936
 1433TIP3    H231223   1.020   8.059   6.058  0.7298 -0.6114 -1.9239
 1434TIP3   OH231224   6.567   5.432   0.846  0.3949  0.4689  0.2862
 1434TIP3    H131225   6.518   5.514   0.841 -1.7123 -0.7103  0.3501
 1434TIP3    H231226   6.584   5.420   0.939  0.9049  0.9164  0.2571
 1435TIP3   OH231227   1.610   5.794   1.320 -0.4138 -0.2116 -0.5938
 1435TIP3    H131228   1.673   5.863   1.340  2.0888 -2.1009 -1.2911
 1435TIP3    H231229   1.565   5.777   1.403  2.4036 -0.9450  0.9357
 1436TIP3   OH231230   4.481   8.043   6.462 -0.2363  0.1503  0.4711
 1436TIP3    H131231   4.508   7.968   6.515 -0.2279  0.3350  0.7301
 1436TIP3    H231232   4.561   8.095   6.452 -0.2016  0.0359  0.1435
 1437TIP3   OH231233   5.310   6.212   1.275 -0.6799  0.2879  0.2857
 1437TIP3    H131234   5.253   6.183   1.204 -0.8712  0.5735  0.3167
 1437TIP3    H231235   5.249   6.242   1.343 -0.5054  2.2221 -0.3487
 1438TIP3   OH231236   8.290   3.034   1.153 -0.4829  0.1219  0.2737
 1438TIP3    H131237   8.315   3.125   1.167 -0.8769  0.5630 -1.6100
 1438TIP3    H231238   8.298   2.994   1.239  0.7088  1.6760  0.9461
 1439TIP3   OH231239   3.585   0.867   6.927 -0.4058  0.2249  0.1733
 1439TIP3    H131240   3.648   0.939   6.925 -0.4506  0.2950  1.0812
 1439TIP3    H231241   3.499   0.910   6.928 -0.4300  0.1751  0.9289
 1440TIP3   OH231242   6.812   4.891   7.043  0.2802 -0.7292 -0.3220
 1440TIP3    H131243   6.853   4.807   7.023 -1.4351 -1.2869 -1.7752
 1440TIP3    H231244   6.740   4.869   0.030  0.4088 -0.1282  0.0711
 1441TIP3   OH231245   3.981   3.386   5.825  0.2972  0.2000  0.2738
 1441TIP3    H131246   3.944   3.324   5.763  0.3579  0.7280 -0.2965
 1441TIP3    H231247   3.947   3.358   5.910 -1.3060  0.5704 -0.2079
 1442TIP3   OH231248   3.521   8.324   1.089 -0.1963  0.1666  0.5331
 1442TIP3    H131249   3.513   8.418   1.074 -0.9041 -0.0851 -0.8413
 1442TIP3    H231250   3.436   8.298   1.126 -0.2706 -0.0478  0.2172
 1443TIP3   OH231251   7.359   4.287   6.323 -0.2199  0.1000  0.9002
 1443TIP3    H131252   7.305   4.317   6.396  0.7339  0.3941  1.4983
 1443TIP3    H231253   7.307   4.217   6.283 -1.5452  1.1297  0.7571
 1444TIP3   OH231254   4.762   4.249   4.959  0.1068  1.2271  0.7655
 1444TIP3    H131255   4.827   4.213   4.899  0.1960  1.2978  0.8206
 1444TIP3    H231256   4.771   4.196   5.038 -0.2922  0.8626  0.5732
 1445TIP3   OH231257   1.372   0.120   1.266  0.2649 -0.5227 -0.9046
 1445TIP3    H131258   1.441   0.078   1.317  0.4642  0.1334 -0.6209
 1445TIP3    H231259   1.303   0.138   1.330 -0.0068 -0.8139 -1.1119
 1446TIP3   OH231260   0.177   5.369   1.464 -0.1842  0.2360 -0.1872
 1446TIP3    H131261   0.210   5.296   1.518  1.1073  0.4263 -0.6677
 1446TIP3    H231262   0.257   5.412   1.432 -0.9337  1.3302 -0.6284
 1447TIP3   OH231263   0.560   5.902   0.846 -0.0333  0.2170  0.5020
 1447TIP3    H131264   0.484   5.930   0.898 -0.7697 -1.9403  0.6521
 1447TIP3    H231265   0.613   5.851   0.906  0.6678  0.2320 -0.0871
 1448TIP3   OH231266   5.835   1.280   6.116 -0.8340  1.0304  0.2985
 1448TIP3    H131267   5.797   1.368   6.120 -0.5263  1.2794 -1.4325
 1448TIP3    H231268   5.839   1.260   6.022  0.2604 -0.3217  0.6036
 1449TIP3   OH231269   5.872   8.352   6.080 -0.2796  0.0287 -0.2293
 1449TIP3    H131270   5.836   8.441   6.086 -1.0346 -0.3107  0.4797
 1449TIP3    H231271   5.802   8.296   6.112  0.9976 -0.6277  1.6332
 1450TIP3   OH231272   3.957   3.978   0.693  0.3307 -0.1999 -0.0431
 1450TIP3    H131273   3.990   3.910   0.752 -1.5290 -0.9815  0.1761
 1450TIP3    H231274   3.940   4.053   0.750  0.4273 -0.2723  0.0815
 1451TIP3   OH231275   7.224   2.509   1.735 -0.2813  0.4323  0.1453
 1451TIP3    H131276   7.232   2.425   1.689 -0.3517  1.1607 -1.2740
 1451TIP3    H231277   7.138   2.505   1.778 -0.4273 -0.1005 -0.1864
 1452TIP3   OH231278   3.837   6.522   5.324  0.0042  0.3474 -0.4144
 1452TIP3    H131279   3.907   6.488   5.269  0.1921  1.6798 -1.0201
 1452TIP3    H231280   3.765   6.459   5.314 -0.4603  1.2073 -3.2425
 1453TIP3   OH231281   4.523   1.824   6.006  0.0266  0.1907 -0.2422
 1453TIP3    H131282   4.544   1.917   5.994  1.7312  0.3256  2.8190
 1453TIP3    H231283   4.478   1.820   6.090 -0.5524 -1.7263 -0.6026
 1454TIP3   OH231284   6.015   4.525   6.396  0.0304 -0.3165 -0.2936
 1454TIP3    H131285   5.960   4.452   6.368  1.3451 -0.3626 -3.0783
 1454TIP3    H231286   6.073   4.489   6.463 -1.1877 -1.0329  0.4161
 1455TIP3   OH231287   1.186   2.024   6.724 -0.3374 -0.2471  0.0862
 1455TIP3    H131288   1.269   2.062   6.753  0.6762 -3.0267  1.1284
 1455TIP3    H231289   1.194   2.018   6.629  1.0556 -1.2600  0.2389
 1456TIP3   OH231290   6.164   4.769   6.717  0.6443 -0.3259 -0.0432
 1456TIP3    H131291   6.093   4.796   6.659  0.2401 -1.1155  0.0638
 1456TIP3    H231292   6.197   4.851   6.755 -0.7564  0.0113  0.5372
 1457TIP3   OH231293   1.804   7.267   6.502  0.2332  0.1770 -0.2300
 1457TIP3    H131294   1.858   7.202   6.547  0.5946 -0.3404 -1.3610
 1457TIP3    H231295   1.759   7.314   6.572 -0.3494 -1.5528  0.6136
 1458TIP3   OH231296   1.317   8.254   6.762 -0.5399 -0.3165 -0.2855
 1458TIP3    H131297   1.395   8.198   6.768 -0.6367 -0.3423  0.9650
 1458TIP3    H231298   1.252   8.199   6.717 -0.1266 -0.6100 -0.5392
 1459TIP3   OH231299   4.553   7.784   6.613  0.1401  0.1349 -0.3400
 1459TIP3    H131300   4.579   7.756   6.524  2.2212  1.6974 -0.2946
 1459TIP3    H231301   4.631   7.767   6.666 -0.0951  1.7870  0.5840
 1460TIP3   OH231302   6.665   4.831   1.302  0.1454  0.1546 -0.1876
 1460TIP3    H131303   6.695   4.836   1.393  0.0492  1.8686 -0.2084
 1460TIP3    H231304   6.574   4.802   1.309  0.1253  0.3066  0.2764
 1461TIP3   OH231305   0.026   1.215   1.009  0.0066  0.3295  0.3859
 1461TIP3    H131306   0.119   1.193   1.012 -0.4106 -1.5549  0.5747
 1461TIP3    H231307   0.021   1.291   0.950  1.6766  0.6383  0.6030
 1462TIP3   OH231308   1.046   4.137   0.438  0.2017 -0.2761  0.3609
 1462TIP3    H131309   1.054   4.202   0.508  0.5888  0.0416  0.0280
 1462TIP3    H231310   1.017   4.057   0.483 -1.0646  0.3253  0.6611
 1463TIP3   OH231311   7.393   3.199   1.172 -0.1844 -0.5387  0.0039
 1463TIP3    H131312   7.337   3.277   1.179 -0.1549 -0.5026 -0.1688
 1463TIP3    H231313   7.446   3.215   1.094 -0.2177 -0.7570 -0.0624
 1464TIP3   OH231314   0.920   7.095   5.423  0.2903 -0.4618  0.2071
 1464TIP3    H131315   0.902   7.181   5.461 -0.1588  0.1588 -1.3225
 1464TIP3    H231316   0.972   7.050   5.489  0.7805  1.0902  0.9243
 1465TIP3   OH231317   0.727   0.656   0.613  0.2634  0.3104  0.0068
 1465TIP3    H131318   0.778   0.717   0.560  0.0322  0.7410  0.2752
 1465TIP3    H231319   0.751   0.676   0.704  3.9189 -3.1688  0.1365
 1466TIP3   OH231320   8.296   2.763   5.980  0.1714  0.1890  0.1953
 1466TIP3    H131321   8.321   2.716   5.901  2.2122  0.9691  0.3345
 1466TIP3    H231322   8.202   2.777   5.970  0.2724 -0.2561 -1.7861
 1467TIP3   OH231323   4.716   3.060   6.131 -0.3814 -0.2525  0.0693
 1467TIP3    H131324   4.793   3.004   6.143  1.3493  1.0572 -3.5264
 1467TIP3    H231325   4.725   3.128   6.197  1.9823  0.1961 -0.6252
 1468TIP3   OH231326   2.957   2.314   5.928 -0.0446  0.7231 -0.1557
 1468TIP3    H131327   3.041   2.272   5.913 -0.4800  0.2545 -1.4244
 1468TIP3    H231328   2.964   2.398   5.882  0.9520  2.3155  2.6581
 1469TIP3   OH231329   3.316   0.811   0.455 -0.2268  0.3489  0.2510
 1469TIP3    H131330   3.384   0.872   0.483  0.3848 -0.2684  0.1268
 1469TIP3    H231331   3.346   0.777   0.371 -0.3157 -0.4816  0.5389
 1470TIP3   OH231332   7.937   4.263   6.162  0.2680 -0.5606 -0.3554
 1470TIP3    H131333   8.009   4.245   6.101 -0.0204  0.2595 -0.9517
 1470TIP3    H231334   7.957   4.210   6.239  0.3223 -2.1034 -1.3845
 1471TIP3   OH231335   3.484   0.013   6.454  0.0846  0.0338  0.1807
 1471TIP3    H131336   3.514   0.075   6.521  0.8441  0.6730 -0.7097
 1471TIP3    H231337   3.389   0.021   6.454  0.1785  1.4606 -0.1204
 1472TIP3   OH231338   5.123   7.020   5.600 -0.3437 -0.0472  0.2289
 1472TIP3    H131339   5.083   7.029   5.513 -0.6332 -1.2265  0.2188
 1472TIP3    H231340   5.099   7.100   5.646 -1.4484 -0.0678 -0.2760
 1473TIP3   OH231341   4.159   0.789   6.800 -0.3606 -0.1885 -0.1886
 1473TIP3    H131342   4.122   0.873   6.826 -2.5870 -0.9770 -0.5612
 1473TIP3    H231343   4.086   0.743   6.757  1.1115 -1.8433 -1.0537
 1474TIP3   OH231344   6.462   7.111   4.835 -0.0102  0.1666 -0.0266
 1474TIP3    H131345   6.510   7.035   4.866  1.1387  0.7113 -0.4207
 1474TIP3    H231346   6.469   7.174   4.907 -1.5078 -0.2959  0.5697
 1475TIP3   OH231347   7.356   0.631   6.338 -0.2621  0.1599  0.9387
 1475TIP3    H131348   7.433   0.641   6.282  0.6993 -2.2645  1.6755
 1475TIP3    H231349   7.291   0.588   6.283  0.2076 -0.9961  1.2501
 1476TIP3   OH231350   8.330   4.568   1.541  0.0940  0.3716 -0.2931
 1476TIP3    H131351   8.349   4.474   1.547 -1.7930  0.0248  0.7274
 1476TIP3    H231352   8.321   4.597   1.631 -0.2254  1.3447 -0.6253
 1477TIP3   OH231353   4.473   1.990   6.626 -0.7131 -0.0756  0.4338
 1477TIP3    H131354   4.561   2.020   6.651 -1.0790  1.9337 -0.5291
 1477TIP3    H231355   4.486   1.899   6.602  1.2779  0.3697 -0.4049
 1478TIP3   OH231356   5.932   1.701   6.446 -0.3322 -0.2428  0.2282
 1478TIP3    H131357   6.017   1.695   6.490  1.8628 -0.5084 -3.5620
 1478TIP3    H231358   5.893   1.615   6.458  1.0669 -0.9318  0.0894
 1479TIP3   OH231359   5.407   7.693   0.669 -0.1032  0.0451 -0.0545
 1479TIP3    H131360   5.495   7.721   0.695 -0.2826 -0.6900  1.4376
 1479TIP3    H231361   5.401   7.602   0.696 -0.6472 -0.5462 -1.9851
 1480TIP3   OH231362   5.445   7.894   1.454  0.3557  0.0898  0.5853
 1480TIP3    H131363   5.514   7.828   1.451  0.8496  0.5950  0.6159
 1480TIP3    H231364   5.378   7.857   1.511  0.9293 -0.1082  1.1345
 1481TIP3   OH231365   5.520   6.782   0.494  0.1609 -1.0639 -0.3068
 1481TIP3    H131366   5.453   6.714   0.504 -0.5684 -0.2830  0.3428
 1481TIP3    H231367   5.477   6.850   0.442 -0.2423  0.2520  1.6025
 1482TIP3   OH231368   5.892   0.298   5.863  0.0553  0.2848 -0.1843
 1482TIP3    H131369   5.867   0.232   5.799 -1.5277 -0.5355  1.1998
 1482TIP3    H231370   5.839   0.375   5.840  1.6230  1.0413 -1.5621
 1483TIP3   OH231371   6.602   5.551   6.427 -0.4883  0.0554 -0.4654
 1483TIP3    H131372   6.677   5.601   6.459 -0.0967 -0.9980  0.3301
 1483TIP3    H231373   6.533   5.570   6.490 -1.0419  1.3581 -1.4334
 1484TIP3   OH231374   1.992   6.295   6.504  0.4092  0.4545  0.2689
 1484TIP3    H131375   1.909   6.252   6.484 -0.4681  0.9916  2.5145
 1484TIP3    H231376   1.996   6.369   6.443  1.0678 -1.5961 -2.3722
 1485TIP3   OH231377   3.702   0.361   6.057 -0.3224  0.2387  0.0486
 1485TIP3    H131378   3.755   0.436   6.027  0.8069  0.6564  2.8028
 1485TIP3    H231379   3.664   0.325   5.977  0.7036  2.5518 -1.5815
 1486TIP3   OH231380   4.232   7.341   6.104 -0.3629  0.2880  0.5132
 1486TIP3    H131381   4.149   7.329   6.058 -0.3896  0.8728  0.4021
 1486TIP3    H231382   4.298   7.334   6.034 -0.0577 -3.1271  0.9736
 1487TIP3   OH231383   7.281   6.949   0.245 -0.0739 -0.3990  0.3337
 1487TIP3    H131384   7.291   6.883   0.314  2.1329 -0.6331 -0.1535
 1487TIP3    H231385   7.368   6.959   0.208 -0.7669  1.3437 -0.9713
 1488TIP3   OH231386   2.847   6.670   6.374 -0.6429 -0.8642  0.9626
 1488TIP3    H131387   2.752   6.669   6.360 -0.3824  0.0821 -1.5025
 1488TIP3    H231388   2.860   6.734   6.444 -1.7583  0.3232  0.1562
 1489TIP3   OH231389   6.427   6.610   5.599  0.1848 -0.2678 -0.0777
 1489TIP3    H131390   6.444   6.543   5.533  0.0415  0.0804 -0.4684
 1489TIP3    H231391   6.457   6.691   5.560  3.1955 -0.4687  1.5294
 1490TIP3   OH231392   4.219   7.538   6.666  0.0232  0.2105 -0.3541
 1490TIP3    H131393   4.281   7.511   6.599 -0.1625  0.3762 -0.5929
 1490TIP3    H231394   4.163   7.462   6.680 -0.1050  0.2651 -0.5764
 1491TIP3   OH231395   1.705   7.057   5.180  0.3915 -0.4166 -0.6313
 1491TIP3    H131396   1.644   7.118   5.223 -0.2985  0.2026 -2.4065
 1491TIP3    H231397   1.791   7.081   5.215 -0.2397 -0.7914  1.3316
 1492TIP3   OH231398   0.868   0.790   5.734 -0.1360 -0.8676 -0.2895
 1492TIP3    H131399   0.892   0.880   5.758 -0.9865 -0.0945 -2.1763
 1492TIP3    H231400   0.952   0.748   5.712  0.0651  0.1500 -1.5456
 1493TIP3   OH231401   7.901   3.061   5.079 -0.2030 -0.1694 -0.2892
 1493TIP3    H131402   7.938   3.129   5.022 -0.5830 -0.5349 -0.9845
 1493TIP3    H231403   7.963   2.988   5.073  0.9099  0.5537  1.4958
 1494TIP3   OH231404   4.998   2.586   6.037  0.5520 -0.4594 -0.6294
 1494TIP3    H131405   4.924   2.598   5.977  0.8814 -2.0364 -1.4122
 1494TIP3    H231406   5.018   2.674   6.068 -0.0617  0.3437 -2.3460
 1495TIP3   OH231407   4.301   8.297   0.893 -0.0075  0.2649  0.1070
 1495TIP3    H131408   4.243   8.231   0.930 -0.7482  0.7584 -0.1518
 1495TIP3    H231409   4.377   8.298   0.953  0.2884 -1.1976 -0.2105
 1496TIP3   OH231410   6.261   7.683   0.170 -0.4314  0.5367 -0.0980
 1496TIP3    H131411   6.274   7.622   0.097 -0.5309 -1.0229  1.1176
 1496TIP3    H231412   6.186   7.736   0.146 -0.0780  0.4758 -1.3826
 1497TIP3   OH231413   6.710   0.620   5.901 -0.2344 -0.4510  0.3927
 1497TIP3    H131414   6.768   0.658   5.835  0.4744 -0.8120  0.7995
 1497TIP3    H231415   6.747   0.534   5.920 -1.9822 -1.4976 -0.7162
 1498TIP3   OH231416   4.893   8.152   0.231  0.5776  0.0832 -0.2507
 1498TIP3    H131417   4.888   8.242   0.264 -0.6001  0.0078 -0.1871
 1498TIP3    H231418   4.827   8.148   0.162  1.2653 -0.4850 -0.8922
 1499TIP3   OH231419   4.999   5.764   1.226 -0.3724 -0.5145 -0.0050
 1499TIP3    H131420   5.009   5.841   1.170  0.5116  0.3476  1.3033
 1499TIP3    H231421   5.055   5.698   1.185  0.2245  0.0860 -0.1738
 1500TIP3   OH231422   8.318   0.763   6.253  0.3408  0.0509  0.1978
 1500TIP3    H131423   8.225   0.740   6.248  0.4628 -0.5164  0.4052
 1500TIP3    H231424   8.339   0.760   6.346  0.9232 -1.3854  0.0594
 1501TIP3   OH231425   4.202   4.543   0.085  0.6435 -0.1168  0.1570
 1501TIP3    H131426   4.211   4.526   0.178 -2.6875  1.8555  0.9967
 1501TIP3    H231427   4.140   4.477   0.054 -0.1607  0.7363 -0.0845
 1502TIP3   OH231428   8.460   2.523   1.061 -0.0105  0.7424  1.0864
 1502TIP3    H131429   8.471   2.440   1.108 -1.0471 -0.6882 -1.0561
 1502TIP3    H231430   0.009   2.538   1.019 -0.3608 -0.2599 -0.0347
 1503TIP3   OH231431   1.354   4.381   6.842  0.2472 -0.5175  0.1856
 1503TIP3    H131432   1.375   4.474   6.837 -0.7039 -0.3020  0.1528
 1503TIP3    H231433   1.378   4.346   6.756  0.8085 -0.3612  0.2696
 1504TIP3   OH231434   3.520   1.116   5.746 -0.1586  0.1306  0.0096
 1504TIP3    H131435   3.577   1.040   5.758 -1.0034 -0.3817  1.0310
 1504TIP3    H231436   3.467   1.094   5.670 -1.7032 -1.2112  1.3898
 1505TIP3   OH231437   5.208   4.469   6.489  0.0693  0.0500  0.5172
 1505TIP3    H131438   5.142   4.413   6.532 -1.4193  0.6137 -0.9557
 1505TIP3    H231439   5.224   4.539   6.552  1.2129 -1.4132  1.9642
 1506TIP3   OH231440   6.447   4.156   6.485 -0.3715 -0.3611 -0.1057
 1506TIP3    H131441   6.391   4.106   6.545 -1.7950  1.9354  0.5915
 1506TIP3    H231442   6.504   4.207   6.542 -1.2586  1.3234 -0.6658
 1507TIP3   OH231443   4.364   3.210   5.289  0.0751  0.3545  0.2540
 1507TIP3    H131444   4.452   3.235   5.261  0.0662  0.2036  0.0881
 1507TIP3    H231445   4.324   3.292   5.320 -0.1801  0.6826 -0.8915
 1508TIP3   OH231446   8.232   0.360   0.299  0.3363 -0.1809  1.0146
 1508TIP3    H131447   8.280   0.336   0.378  0.1150 -0.6199  1.0177
 1508TIP3    H231448   8.140   0.364   0.327  0.3402  0.4561  0.9627
 1509TIP3   OH231449   3.410   1.593   0.577 -0.0211 -0.2151 -0.3791
 1509TIP3    H131450   3.384   1.615   0.666 -0.3921  0.6534 -0.6896
 1509TIP3    H231451   3.328   1.581   0.530  0.1726 -0.7464 -0.5936
 1510TIP3   OH231452   6.853   6.183   1.914 -0.0420  0.0103  0.0011
 1510TIP3    H131453   6.827   6.162   1.824 -2.4983  1.4268  0.2763
 1510TIP3    H231454   6.948   6.172   1.915 -0.0414 -0.8314 -2.5375
 1511TIP3   OH231455   4.804   1.651   5.577  0.2523  0.5850 -0.5350
 1511TIP3    H131456   4.860   1.633   5.501 -0.3303  0.4283 -0.9359
 1511TIP3    H231457   4.827   1.584   5.641  0.0145  0.0889 -0.9695
 1512TIP3   OH231458   1.410   5.655   6.458  0.5800  0.5223 -0.3168
 1512TIP3    H131459   1.443   5.673   6.546  0.2159  2.0432 -0.4711
 1512TIP3    H231460   1.319   5.631   6.471 -0.3751  3.7001 -0.4565
 1513TIP3   OH231461   0.149   7.854   1.273  0.3444 -0.7346 -0.1083
 1513TIP3    H131462   0.083   7.850   1.342 -0.1256 -2.1910 -0.6245
 1513TIP3    H231463   0.099   7.861   1.192  0.8975  1.4264 -0.3387
 1514TIP3   OH231464   1.627   5.663   6.675 -0.0046 -0.0969 -0.1448
 1514TIP3    H131465   1.557   5.662   6.740  0.7717 -1.8530  0.7365
 1514TIP3    H231466   1.706   5.644   6.725  0.8345 -0.0376 -1.4075
 1515TIP3   OH231467   7.184   0.455   5.768  0.6044 -0.0359  0.0344
 1515TIP3    H131468   7.183   0.371   5.723  2.2933  0.2577 -0.6387
 1515TIP3    H231469   7.147   0.517   5.706  0.5324 -0.0739  0.0402
 1516TIP3   OH231470   6.611   1.535   1.417 -0.2112  0.7225 -0.7199
 1516TIP3    H131471   6.577   1.573   1.497 -0.8291 -1.4158  0.1102
 1516TIP3    H231472   6.574   1.588   1.347  0.5173  2.7690  0.3656
 1517TIP3   OH231473   1.871   3.011   0.144  0.0794 -0.3778  0.7331
 1517TIP3    H131474   1.881   3.084   0.205 -0.9265 -0.0478  0.5231
 1517TIP3    H231475   1.817   3.046   0.073  0.5866 -0.9785  0.0322
 1518TIP3   OH231476   8.281   3.084   0.484  0.1157  0.3193 -0.4539
 1518TIP3    H131477   8.215   3.126   0.428  0.3117  1.5065  0.1857
 1518TIP3    H231478   8.257   3.109   0.573 -0.2668 -1.6580  0.0515
 1519TIP3   OH231479   1.590   1.553   5.870  0.0582  0.1992 -0.4409
 1519TIP3    H131480   1.612   1.477   5.816 -0.5991 -0.4877  0.2192
 1519TIP3    H231481   1.527   1.603   5.818  0.0099 -0.0479 -0.6187
 1520TIP3   OH231482   3.831   4.136   0.443  0.3942 -0.2558  0.3022
 1520TIP3    H131483   3.903   4.198   0.430  0.4825 -0.2474  0.8122
 1520TIP3    H231484   3.815   4.138   0.537 -2.8765  2.6837 -0.1330
 1521TIP3   OH231485   7.383   2.816   0.088 -0.1147 -0.0972 -0.2690
 1521TIP3    H131486   7.293   2.826   0.119 -0.5103 -1.4455 -0.8931
 1521TIP3    H231487   7.406   2.726   0.110  1.5268  0.5647  0.9268
 1522TIP3   OH231488   2.111   2.286   0.790 -0.1210 -0.4351  0.2259
 1522TIP3    H131489   2.183   2.243   0.744  2.0496  0.9983  2.0947
 1522TIP3    H231490   2.101   2.371   0.746 -0.6953 -0.6113 -0.0029
 1523TIP3   OH231491   3.850   2.015   0.144 -0.5251 -0.3815  0.1414
 1523TIP3    H131492   3.785   2.019   0.215  1.9400  0.7456  2.5433
 1523TIP3    H231493   3.886   1.926   0.150  0.2929 -0.0140  0.9713
 1524TIP3   OH231494   6.897   1.762   6.971  0.3093 -0.5858 -0.2211
 1524TIP3    H131495   6.814   1.774   6.924  0.5589 -1.7193 -0.9864
 1524TIP3    H231496   6.886   1.812   7.052 -0.8592 -0.1637 -0.6204
 1525TIP3   OH231497   3.017   5.294   6.953 -0.3544  0.0357 -0.1330
 1525TIP3    H131498   2.936   5.340   6.976 -0.8117  0.8711 -3.0438
 1525TIP3    H231499   3.061   5.351   6.891  1.3791 -1.4218 -0.3400
 1526TIP3   OH231500   3.114   0.417   6.061  0.5467 -0.0575 -0.1636
 1526TIP3    H131501   3.085   0.505   6.040  0.5752  0.5089  1.9347
 1526TIP3    H231502   3.204   0.428   6.092  0.9281 -0.9731 -0.9189
 1527TIP3   OH231503   6.093   4.034   1.091  0.1593 -0.2407  0.0605
 1527TIP3    H131504   6.096   4.095   1.018  0.7983  0.5017  0.6994
 1527TIP3    H231505   6.184   4.009   1.106 -0.0240 -0.8094  0.2699
 1528TIP3   OH231506   6.996   6.620   5.796  0.1715  0.0011 -0.7413
 1528TIP3    H131507   6.962   6.554   5.857 -0.9681 -0.4856 -1.8663
 1528TIP3    H231508   7.006   6.698   5.850  1.6619 -1.0672  0.6575
 1529TIP3   OH231509   2.651   1.031   6.769 -0.3425  0.5224 -0.4055
 1529TIP3    H131510   2.566   1.023   6.727  0.3716 -1.0211 -1.6701
 1529TIP3    H231511   2.664   0.946   6.812  0.5122  0.7852 -0.1257
 1530TIP3   OH231512   2.670   6.180   6.733 -0.1959  0.4843  0.4771
 1530TIP3    H131513   2.671   6.232   6.813 -0.1766  1.1979  0.0180
 1530TIP3    H231514   2.597   6.119   6.745 -0.1103  0.4999  1.0896
 1531TIP3   OH231515   5.537   6.831   6.076 -0.0501  0.6414 -0.1264
 1531TIP3    H131516   5.566   6.911   6.032 -0.1798  0.9099  0.2650
 1531TIP3    H231517   5.494   6.780   6.008 -0.5055  1.1844 -0.2520
 1532TIP3   OH231518   0.093   3.465   5.685  0.6207  0.1513 -0.3944
 1532TIP3    H131519   0.079   3.559   5.700  1.1009  0.1245  0.2801
 1532TIP3    H231520   0.100   3.428   5.773 -0.7505 -0.7078 -0.6142
 1533TIP3   OH231521   1.296   7.265   6.057  0.9543 -0.1379  0.5078
 1533TIP3    H131522   1.310   7.179   6.018  0.9211 -0.3227  0.9029
 1533TIP3    H231523   1.341   7.325   5.997  2.4711 -0.6031  1.1229
 1534TIP3   OH231524   5.086   3.546   5.852 -0.7120  0.0539 -0.0235
 1534TIP3    H131525   5.108   3.631   5.890 -0.7053  1.2278 -2.4705
 1534TIP3    H231526   5.027   3.566   5.779  0.7791 -1.8054 -1.8737
 1535TIP3   OH231527   8.471   4.724   6.881 -0.1583 -0.2176 -0.0121
 1535TIP3    H131528   8.531   4.708   6.808  1.3347 -0.3307  1.1924
 1535TIP3    H231529   8.520   4.782   6.940 -0.4214 -1.9082  1.9686
 1536TIP3   OH231530   7.143   2.843   0.212  0.2061  0.3166 -0.0169
 1536TIP3    H131531   7.106   2.911   0.156  2.1602  0.8593 -0.7530
 1536TIP3    H231532   7.068   2.789   0.237 -1.1171  1.6129 -0.9765
 1537TIP3   OH231533   2.329   3.706   6.854 -0.1089  0.1998 -0.4777
 1537TIP3    H131534   2.403   3.764   6.839  0.5926 -0.6511 -0.3730
 1537TIP3    H231535   2.356   3.651   6.928 -1.6084  1.1395  0.8402
 1538TIP3   OH231536   1.427   4.925   0.665 -0.0679  0.1736  0.3328
 1538TIP3    H131537   1.405   4.995   0.727  0.4284  0.8366 -0.2209
 1538TIP3    H231538   1.509   4.953   0.625 -1.0699  0.4663 -1.6410
 1539TIP3   OH231539   6.017   8.429   5.427 -0.7389 -0.2338  0.0835
 1539TIP3    H131540   5.924   8.451   5.419 -0.6802 -0.0835 -0.2243
 1539TIP3    H231541   6.056   8.465   5.348 -0.2915  0.3595  0.5746
 1540TIP3   OH231542   7.670   5.950   5.768  0.4853 -0.0836 -0.1393
 1540TIP3    H131543   7.760   5.983   5.772 -0.0072  1.5067 -1.4090
 1540TIP3    H231544   7.658   5.923   5.677 -0.1711 -0.8223  0.1505
 1541TIP3   OH231545   2.402   2.908   4.685  0.2155  0.5772 -0.4798
 1541TIP3    H131546   2.463   2.925   4.756  0.1123 -0.7048 -0.0574
 1541TIP3    H231547   2.320   2.884   4.729 -0.0571  0.4825 -1.0256
 1542TIP3   OH231548   2.521   1.345   0.601  0.1352  0.9108 -0.3231
 1542TIP3    H131549   2.586   1.386   0.544  0.0339  2.3559  0.5601
 1542TIP3    H231550   2.532   1.388   0.685 -1.4480  0.6286  0.0592
 1543TIP3   OH231551   1.588   4.052   0.142 -0.1983  0.0092 -0.2612
 1543TIP3    H131552   1.653   4.030   0.075  0.9379  3.7178 -0.5775
 1543TIP3    H231553   1.519   4.098   0.095 -0.9061 -0.0039  0.7190
 1544TIP3   OH231554   4.383   0.722   0.340  0.1452 -0.4168  0.2216
 1544TIP3    H131555   4.428   0.745   0.421 -0.9265  1.7000  0.2717
 1544TIP3    H231556   4.396   0.797   0.283  0.2494 -1.5603 -1.3244
 1545TIP3   OH231557   2.930   7.112   6.500  0.0787  0.2426 -0.8030
 1545TIP3    H131558   2.952   7.026   6.536  1.6684  0.7949 -0.3553
 1545TIP3    H231559   2.842   7.131   6.533  0.1099 -0.7895 -0.0933
 1546TIP3   OH231560   2.638   2.891   6.525  0.0898  0.2440  0.4075
 1546TIP3    H131561   2.619   2.803   6.559 -2.0595 -0.0780 -1.3674
 1546TIP3    H231562   2.572   2.947   6.567 -0.3481  0.4643 -0.5579
 1547TIP3   OH231563   4.367   6.289   6.658  0.0654 -0.1213 -0.0761
 1547TIP3    H131564   4.421   6.212   6.669 -0.0480 -0.1945 -0.0212
 1547TIP3    H231565   4.328   6.303   6.745  0.4232  0.2520  0.0270
 1548TIP3   OH231566   0.837   2.399   5.184  0.6139 -0.4389  0.5222
 1548TIP3    H131567   0.859   2.306   5.192  1.1667 -0.2484  1.4009
 1548TIP3    H231568   0.800   2.421   5.270 -0.4798 -0.0904 -0.0234
 1549TIP3   OH231569   4.444   6.477   0.958 -0.2624  0.0023  0.8949
 1549TIP3    H131570   4.416   6.386   0.962 -1.7078  0.4091  0.4884
 1549TIP3    H231571   4.441   6.500   0.865 -1.2926  0.8485  1.1111
 1550TIP3   OH231572   0.505   8.489   0.966  0.5763  0.1332  0.3656
 1550TIP3    H131573   0.540   8.432   0.898 -0.4780  0.1212 -0.1928
 1550TIP3    H231574   0.429   8.442   1.000 -0.0044  0.9635  0.2485
 1551TIP3   OH231575   6.468   7.815   0.274  0.5373 -0.1905  0.1248
 1551TIP3    H131576   6.544   7.766   0.244  0.4068  0.0043 -0.5283
 1551TIP3    H231577   6.393   7.763   0.244  0.4043  0.1736 -0.1768
 1552TIP3   OH231578   2.264   2.354   0.511 -0.1380  0.1860  0.1295
 1552TIP3    H131579   2.275   2.263   0.483  0.8174 -0.5237  2.5717
 1552TIP3    H231580   2.347   2.377   0.551 -1.2893  1.1394  2.1382
 1553TIP3   OH231581   0.810   2.128   5.303  0.3168  0.2533  0.4346
 1553TIP3    H131582   0.731   2.164   5.342  0.0914 -0.9964  1.1672
 1553TIP3    H231583   0.882   2.169   5.352  0.1908  1.8137 -0.5914
 1554TIP3   OH231584   0.357   4.567   1.810 -0.0805  0.9259 -0.3920
 1554TIP3    H131585   0.271   4.607   1.826 -1.0545 -0.8427 -0.9829
 1554TIP3    H231586   0.337   4.477   1.786  1.9363  0.6101 -1.0095
 1555TIP3   OH231587   3.053   3.271   0.015  0.6567 -0.7726 -0.4157
 1555TIP3    H131588   2.967   3.266   7.046  0.0269 -0.2428  0.8060
 1555TIP3    H231589   3.048   3.210   0.089  0.8072  0.3717  0.5604
 1556TIP3   OH231590   2.066   4.293   6.315  0.1344 -0.6468  0.0028
 1556TIP3    H131591   2.004   4.283   6.388 -0.3002  2.2889  0.1772
 1556TIP3    H231592   2.016   4.340   6.248  1.3612 -0.7943 -1.0471
 1557TIP3   OH231593   5.978   6.251   0.837 -0.3332  0.1208  0.9098
 1557TIP3    H131594   5.962   6.266   0.744 -0.5588  0.3928  0.9893
 1557TIP3    H231595   5.964   6.337   0.877  0.9587  0.2920  1.0399
 1558TIP3   OH231596   7.207   1.954   1.092  0.5584 -0.2423  0.1830
 1558TIP3    H131597   7.253   2.037   1.101  1.0715 -0.3107 -1.5119
 1558TIP3    H231598   7.273   1.893   1.059  0.3378 -1.4991  1.9044
 1559TIP3   OH231599   6.879   2.434   6.008 -0.4340 -0.0642 -0.3890
 1559TIP3    H131600   6.796   2.429   5.961  0.8507 -0.8224 -2.7323
 1559TIP3    H231601   6.924   2.510   5.971  0.8557 -1.0172 -0.8768
 1560TIP3   OH231602   1.113   2.838   1.172 -0.1532  1.1961  0.1811
 1560TIP3    H131603   1.200   2.847   1.134  0.3031  0.6773  1.0814
 1560TIP3    H231604   1.054   2.875   1.106  0.6791  0.9463 -0.7214
 1561TIP3   OH231605   7.125   2.886   6.510  0.7715 -0.4930 -0.2685
 1561TIP3    H131606   7.058   2.824   6.539  0.1299  0.2017 -0.2259
 1561TIP3    H231607   7.162   2.921   6.591 -0.3950  0.7810 -0.2481
 1562TIP3   OH231608   4.112   6.340   5.779 -0.6149 -0.3210  0.5276
 1562TIP3    H131609   4.045   6.402   5.747 -1.9696 -2.1037 -0.2489
 1562TIP3    H231610   4.066   6.286   5.842 -0.3960 -2.6003 -1.1548
 1563TIP3   OH231611   7.768   5.048   1.334  0.1323 -0.0849 -0.2344
 1563TIP3    H131612   7.802   5.083   1.416 -0.2893  1.7097 -0.7946
 1563TIP3    H231613   7.781   5.118   1.270 -2.0035 -0.3920 -1.0874
 1564TIP3   OH231614   0.650   7.630   6.999  0.0300 -0.0292  0.4777
 1564TIP3    H131615   0.720   7.589   7.050  0.5699  1.4953  1.0214
 1564TIP3    H231616   0.575   7.630   7.059 -0.0803 -0.5446  0.3424
 1565TIP3   OH231617   6.097   7.988   1.077  0.1786  0.6555  0.1520
 1565TIP3    H131618   6.138   7.979   1.163  0.6452  2.6808  0.1889
 1565TIP3    H231619   6.147   7.928   1.020 -0.3274 -0.9322  1.3070
 1566TIP3   OH231620   4.747   3.337   5.319  0.4263  0.5720  0.0998
 1566TIP3    H131621   4.711   3.251   5.340 -0.9023  0.5664 -1.9142
 1566TIP3    H231622   4.735   3.388   5.399 -1.6940 -0.2216  0.3548
 1567TIP3   OH231623   8.168   3.103   0.844 -0.7609  0.0656  0.4547
 1567TIP3    H131624   8.189   3.196   0.854 -0.4199 -0.1684  2.5575
 1567TIP3    H231625   8.073   3.099   0.849 -0.8193  0.3701 -0.4095
 1568TIP3   OH231626   7.849   2.099   0.785 -0.0935 -0.4587 -0.9261
 1568TIP3    H131627   7.845   2.026   0.723  0.1896 -1.5661  0.3218
 1568TIP3    H231628   7.789   2.074   0.856  1.0901 -0.1633  0.2134
 1569TIP3   OH231629   3.873   5.427   7.000  0.1128 -0.1588  0.0678
 1569TIP3    H131630   3.884   5.439   0.023  2.4402 -2.0865  0.1567
 1569TIP3    H231631   3.821   5.347   6.992  2.6036 -1.8858 -0.1255
 1570TIP3   OH231632   4.994   2.373   0.237 -0.1608  0.0786  0.5486
 1570TIP3    H131633   4.955   2.308   0.295  2.0120 -0.1041  1.9341
 1570TIP3    H231634   5.036   2.322   0.168 -0.1017  0.1131  0.5582
 1571TIP3   OH231635   0.062   3.991   0.362  0.2184  0.4515  0.2021
 1571TIP3    H131636   0.038   3.902   0.387  0.8155 -0.0621 -0.9640
 1571TIP3    H231637   0.109   3.981   0.279 -0.0388  1.8870 -0.1481
 1572TIP3   OH231638   4.813   6.246   0.982 -0.1717 -0.1990 -0.1598
 1572TIP3    H131639   4.747   6.239   1.051 -1.1288  0.3521 -0.9995
 1572TIP3    H231640   4.763   6.242   0.901  0.6434  1.7472 -0.8194
 1573TIP3   OH231641   2.808   1.396   6.094  0.2301  0.4935 -0.4187
 1573TIP3    H131642   2.835   1.387   6.186  0.2607  1.7575 -0.2874
 1573TIP3    H231643   2.766   1.482   6.090 -0.2403  0.2257 -1.4849
 1574TIP3   OH231644   1.399   7.274   6.804  0.0021 -0.4229 -0.0229
 1574TIP3    H131645   1.324   7.221   6.778  0.1150 -0.9722  0.7538
 1574TIP3    H231646   1.361   7.351   6.845 -0.1858  0.4910 -1.7866
 1575TIP3   OH231647   8.344   2.607   6.831  0.3903 -0.6375 -0.1473
 1575TIP3    H131648   8.365   2.529   6.883  2.4683 -0.3407 -0.4458
 1575TIP3    H231649   8.423   2.623   6.779 -0.9309  0.1725 -2.0259
 1576TIP3   OH231650   3.380   6.645   6.088 -0.1342  0.0866 -0.3048
 1576TIP3    H131651   3.288   6.619   6.094  0.3854 -1.5889  1.5489
 1576TIP3    H231652   3.422   6.572   6.044  0.6030 -0.0712  0.6387
 1577TIP3   OH231653   4.956   0.468   1.650  0.0995  0.2111 -0.1544
 1577TIP3    H131654   5.028   0.531   1.645 -0.7177  1.8752  4.2148
 1577TIP3    H231655   4.999   0.384   1.667  1.0715  0.7675  0.2166
 1578TIP3   OH231656   2.831   1.670   5.672  0.0097  0.1700 -0.0385
 1578TIP3    H131657   2.741   1.657   5.640  0.3357 -2.4361 -0.1066
 1578TIP3    H231658   2.885   1.620   5.611  1.6022  2.1228 -0.2886
 1579TIP3   OH231659   0.791   4.290   1.941 -0.3377  0.0324 -0.6355
 1579TIP3    H131660   0.777   4.345   1.864 -0.7676  0.8389  0.0054
 1579TIP3    H231661   0.848   4.341   1.997 -0.0646 -0.5336 -0.3950
 1580TIP3   OH231662   2.890   1.109   2.060  0.4215  0.3251 -0.4073
 1580TIP3    H131663   2.960   1.094   1.997  0.2221  0.3539 -0.6363
 1580TIP3    H231664   2.837   1.030   2.058  0.2623  0.4310 -0.4745
 1581TIP3   OH231665   6.262   0.172   6.413  0.3377 -1.0265  0.7719
 1581TIP3    H131666   6.304   0.125   6.486  3.0556  0.5377  0.3201
 1581TIP3    H231667   6.215   0.244   6.455  1.6088 -0.3374  1.0715
 1582TIP3   OH231668   6.697   3.808   1.348  0.0653  0.0999 -0.1897
 1582TIP3    H131669   6.708   3.894   1.308 -0.7739 -0.1211 -0.9206
 1582TIP3    H231670   6.610   3.810   1.388 -0.8518 -1.0594 -1.9732
 1583TIP3   OH231671   5.124   4.727   1.706  0.3421 -0.3477  0.8363
 1583TIP3    H131672   5.209   4.741   1.747 -0.4299  2.2263  1.7026
 1583TIP3    H231673   5.069   4.690   1.775  0.2954 -0.4356  0.7536
 1584TIP3   OH231674   3.978   7.477   5.958  0.0546 -0.5947 -0.4539
 1584TIP3    H131675   3.921   7.547   5.990  0.6563 -0.0316 -0.5929
 1584TIP3    H231676   3.947   7.399   6.003  0.8370  0.1600  1.5286
 1585TIP3   OH231677   4.115   7.335   6.336  0.3639 -0.4906 -0.4617
 1585TIP3    H131678   4.163   7.342   6.254  0.4630 -1.1365 -0.4676
 1585TIP3    H231679   4.131   7.418   6.381  1.8802 -0.8576 -0.2537
 1586TIP3   OH231680   2.904   5.915   6.811 -0.0024  0.3607 -0.2312
 1586TIP3    H131681   2.945   5.845   6.760  0.1177  0.1922  0.0908
 1586TIP3    H231682   2.834   5.948   6.754 -0.2525 -0.2215 -0.2757
 1587TIP3   OH231683   4.618   8.038   0.240  0.1464  0.0318  0.2969
 1587TIP3    H131684   4.606   8.124   0.280  0.8028  0.6488 -0.7795
 1587TIP3    H231685   4.684   7.995   0.294 -0.8429 -0.1726  1.3782
 1588TIP3   OH231686   6.771   2.050   0.839  0.3959  0.2396 -0.0447
 1588TIP3    H131687   6.822   2.096   0.772  0.1500 -0.7560 -0.9355
 1588TIP3    H231688   6.799   1.959   0.831 -1.8497 -0.4236 -0.8933
 1589TIP3   OH231689   2.961   5.418   1.832 -0.2292 -0.9331  0.0760
 1589TIP3    H131690   3.010   5.340   1.808  0.3763 -0.9260  1.2251
 1589TIP3    H231691   2.935   5.457   1.748 -0.2593 -2.1787 -0.5101
 1590TIP3   OH231692   0.210   6.228   6.142  0.2522  0.1083 -0.2094
 1590TIP3    H131693   0.242   6.317   6.158 -1.0571  0.5796 -0.0076
 1590TIP3    H231694   0.206   6.220   6.047  0.3492  0.2776 -0.2271
 1591TIP3   OH231695   6.144   3.782   4.918  0.4476  0.2933  0.2862
 1591TIP3    H131696   6.053   3.780   4.950  1.2686  0.5686  2.8314
 1591TIP3    H231697   6.148   3.711   4.855 -1.8314  1.0250 -0.8272
 1592TIP3   OH231698   3.828   5.706   0.064 -0.3286  0.0763 -0.1868
 1592TIP3    H131699   3.746   5.752   0.083  0.1358  0.4932  0.8511
 1592TIP3    H231700   3.851   5.662   0.146  1.3360  1.3116  0.0695
 1593TIP3   OH231701   6.579   1.704   5.995 -0.2087  0.1208  0.4446
 1593TIP3    H131702   6.607   1.742   6.078  1.6600 -1.2309  0.4811
 1593TIP3    H231703   6.536   1.777   5.949  1.0531  1.6080  1.5063
 1594TIP3   OH231704   3.144   7.994   0.312  0.0456  0.3932  0.0028
 1594TIP3    H131705   3.111   7.912   0.276 -0.0551  0.2872  0.3369
 1594TIP3    H231706   3.142   7.982   0.407  1.4092  0.2345  0.0406
 1595TIP3   OH231707   8.043   5.782   0.223  0.2670  0.4165 -0.4284
 1595TIP3    H131708   7.967   5.732   0.252  0.0284  0.8705 -0.2717
 1595TIP3    H231709   8.086   5.810   0.304  1.9315 -1.8058 -0.4504
 1596TIP3   OH231710   4.686   4.027   0.758  0.3169  0.3290  0.4063
 1596TIP3    H131711   4.629   4.001   0.685  1.8175 -0.8151 -0.4302
 1596TIP3    H231712   4.628   4.070   0.820 -1.4571 -0.8157 -0.3781
 1597TIP3   OH231713   2.854   0.788   0.267  0.3097 -0.2859  0.2526
 1597TIP3    H131714   2.889   0.788   0.178  0.5035 -0.3063  0.3287
 1597TIP3    H231715   2.760   0.797   0.256  0.4302  0.8423  0.0911
 1598TIP3   OH231716   2.657   8.005   1.510  0.2894 -0.6946 -0.0974
 1598TIP3    H131717   2.687   7.926   1.555  1.9684 -0.0518  0.0019
 1598TIP3    H231718   2.684   8.077   1.567 -1.9315 -0.0377  0.2105
 1599TIP3   OH231719   0.105   5.591   4.901  0.3005 -0.2257 -0.3175
 1599TIP3    H131720   0.068   5.527   4.961  0.2709 -0.5058 -0.6333
 1599TIP3    H231721   0.086   5.676   4.942 -0.5632 -0.3710 -0.3964
 1600TIP3   OH231722   6.322   4.966   1.782  0.1246 -0.3719 -0.5640
 1600TIP3    H131723   6.243   5.007   1.816 -0.5301 -0.5714 -1.8118
 1600TIP3    H231724   6.309   4.873   1.797  0.1339 -0.4037 -0.7542
 1601TIP3   OH231725   4.298   7.031   6.611  0.0082 -0.3868  0.1794
 1601TIP3    H131726   4.221   6.974   6.621 -0.0597 -0.3088  0.1017
 1601TIP3    H231727   4.367   6.987   6.661 -0.0112 -0.5992  0.0168
 1602TIP3   OH231728   0.767   4.787   1.020  0.1575  0.0245  0.0046
 1602TIP3    H131729   0.703   4.724   1.053  0.8816 -0.3288  0.7684
 1602TIP3    H231730   0.808   4.742   0.946 -0.8834  0.4951 -0.8970
 1603TIP3   OH231731   2.081   5.622   0.428  0.7672  0.5925  0.9645
 1603TIP3    H131732   2.121   5.536   0.436  1.1510  0.7068  0.3385
 1603TIP3    H231733   2.031   5.633   0.508  0.4841 -0.3329  0.9208
 1604TIP3   OH231734   6.119   5.779   6.563 -0.1028 -0.5415  0.1086
 1604TIP3    H131735   6.115   5.841   6.490  1.1776 -1.2418 -0.5769
 1604TIP3    H231736   6.030   5.745   6.570 -0.5918  0.6082 -0.1548
 1605TIP3   OH231737   7.833   4.382   6.690  0.0143  0.8573 -0.2903
 1605TIP3    H131738   7.858   4.295   6.657 -0.7649 -0.2284  1.8084
 1605TIP3    H231739   7.909   4.438   6.671  0.8277 -0.4387 -1.0281
 1606TIP3   OH231740   0.867   4.628   6.782 -0.4977 -0.1482 -0.1768
 1606TIP3    H131741   0.851   4.720   6.805  0.4725 -0.2967  1.2484
 1606TIP3    H231742   0.813   4.578   6.843  1.3603 -0.5375  1.2425
 1607TIP3   OH231743   1.909   7.266   6.236  0.1328  0.1526 -0.1966
 1607TIP3    H131744   1.878   7.280   6.326  0.4518  1.2027 -0.2484
 1607TIP3    H231745   1.888   7.174   6.219  1.6962 -0.6321  1.6005
 1608TIP3   OH231746   7.151   5.677   5.832  0.0988 -0.2769 -0.4478
 1608TIP3    H131747   7.140   5.764   5.871 -0.8014  0.8523 -2.9759
 1608TIP3    H231748   7.231   5.684   5.780 -0.0962 -0.8698 -0.8401
 1609TIP3   OH231749   7.067   3.812   4.731  0.3286 -0.1782 -0.3688
 1609TIP3    H131750   6.979   3.791   4.700 -0.4660  3.1843 -0.7760
 1609TIP3    H231751   7.056   3.828   4.825  0.7194 -0.6283 -0.2398
 1610TIP3   OH231752   6.473   7.857   0.562 -0.5170  0.1088 -0.0016
 1610TIP3    H131753   6.480   7.866   0.467 -0.3238 -1.5763 -0.1802
 1610TIP3    H231754   6.546   7.907   0.597 -0.5389  0.6658 -0.7331
 1611TIP3   OH231755   5.231   7.826   5.596 -0.0202  0.0402  0.0501
 1611TIP3    H131756   5.169   7.798   5.528  0.6284 -2.1462  0.2856
 1611TIP3    H231757   5.317   7.815   5.556  0.3898 -1.6722  1.3214
 1612TIP3   OH231758   0.013   2.848   1.237 -0.2927  0.1998 -0.1242
 1612TIP3    H131759   8.504   2.764   1.227  1.1050 -0.4833 -0.6616
 1612TIP3    H231760   8.531   2.873   1.328 -0.0266 -1.0676  0.2890
 1613TIP3   OH231761   4.562   3.883   6.620 -0.2386 -0.3050 -0.3250
 1613TIP3    H131762   4.609   3.953   6.665  0.3928 -1.5385  1.0046
 1613TIP3    H231763   4.471   3.913   6.617 -0.0424  0.4039  0.5601
 1614TIP3   OH231764   3.493   1.466   0.046  0.1518 -0.3848 -0.1464
 1614TIP3    H131765   3.493   1.495   0.137  1.0818 -0.1107 -0.2248
 1614TIP3    H231766   3.427   1.520   0.003  1.5606  1.3501 -0.2036
 1615TIP3   OH231767   7.933   8.393   6.051  0.2534  0.3852  0.3610
 1615TIP3    H131768   7.927   8.316   6.108 -3.1585 -0.2337 -0.6114
 1615TIP3    H231769   7.915   8.359   5.964 -3.0284  2.3775  0.1082
 1616TIP3   OH231770   5.076   8.113   6.896 -0.0476  0.2839  0.1787
 1616TIP3    H131771   5.078   8.104   6.991  1.7360 -2.9682 -0.0322
 1616TIP3    H231772   5.159   8.156   6.875 -0.3259  0.7693  0.0624
 1617TIP3   OH231773   1.490   3.091   5.545 -0.0719  0.1197  0.1632
 1617TIP3    H131774   1.568   3.120   5.499  0.0713  0.6567  0.7418
 1617TIP3    H231775   1.515   3.087   5.637 -0.6801  0.1648  0.3393
 1618TIP3   OH231776   2.915   7.436   0.001 -0.0023 -0.0429 -0.5390
 1618TIP3    H131777   2.973   7.384   7.017 -1.2880 -0.4405 -1.5916
 1618TIP3    H231778   2.885   7.374   0.069  2.0244  0.5928  1.0484
 1619TIP3   OH231779   2.347   1.908   6.023  0.5646 -0.4015  0.1481
 1619TIP3    H131780   2.419   1.911   6.086  0.4688  0.0796  0.2358
 1619TIP3    H231781   2.390   1.912   5.937  0.6146  0.4950  0.2097
 1620TIP3   OH231782   4.667   1.297   1.882 -0.1612 -0.0804  0.3321
 1620TIP3    H131783   4.762   1.301   1.881 -0.2037  2.4536 -0.6677
 1620TIP3    H231784   4.645   1.256   1.965  1.7952  0.7692  1.3187
 1621TIP3   OH231785   6.915   8.173   6.246 -0.1874 -0.4766  0.3219
 1621TIP3    H131786   6.961   8.195   6.327  0.2154  0.0607 -0.0489
 1621TIP3    H231787   6.972   8.108   6.204 -0.1708 -0.4158  0.2517
 1622TIP3   OH231788   7.785   3.809   0.448 -0.2155  0.0417 -0.6304
 1622TIP3    H131789   7.809   3.720   0.474  0.6269  0.1829 -0.8726
 1622TIP3    H231790   7.840   3.826   0.371 -0.5484  0.6839 -0.7307
 1623TIP3   OH231791   1.878   6.835   1.748  0.0640 -0.8601  0.4265
 1623TIP3    H131792   1.873   6.743   1.771 -2.2758 -0.9678 -0.2897
 1623TIP3    H231793   1.811   6.847   1.681 -0.2490  1.5236  1.0673
 1624TIP3   OH231794   1.910   6.575   1.143  0.3858  0.3080 -0.3307
 1624TIP3    H131795   1.837   6.558   1.202  0.5915  1.5740  0.3210
 1624TIP3    H231796   1.973   6.505   1.163 -0.9408 -1.3205 -1.5062
 1625TIP3   OH231797   4.265   4.471   0.647  0.1122  0.0755  0.1005
 1625TIP3    H131798   4.297   4.384   0.669  0.0650  0.2266  0.8100
 1625TIP3    H231799   4.188   4.483   0.703  0.7372  0.9738  0.7958
 1626TIP3   OH231800   5.276   6.882   0.803 -0.1284 -0.1295  0.9912
 1626TIP3    H131801   5.363   6.908   0.835 -0.0997 -0.2544  1.0167
 1626TIP3    H231802   5.243   6.959   0.757 -0.2459  0.1145  1.4837
 1627TIP3   OH231803   3.121   1.997   6.432 -0.3923  0.3458 -0.2884
 1627TIP3    H131804   3.147   1.918   6.385  0.8681  1.0183 -0.7624
 1627TIP3    H231805   3.031   1.980   6.460 -0.2504 -1.1229 -0.6532
 1628TIP3   OH231806   6.234   5.516   1.297 -0.1212  0.2703  0.3057
 1628TIP3    H131807   6.186   5.553   1.371  0.5615  1.6676  0.0829
 1628TIP3    H231808   6.189   5.550   1.220 -0.1307 -0.2550  0.0730
 1629TIP3   OH231809   5.633   7.021   5.920  0.4398 -0.2423  0.2494
 1629TIP3    H131810   5.677   7.105   5.905  1.3461 -0.2832  2.3213
 1629TIP3    H231811   5.554   7.026   5.866  0.5118  1.9090  0.2456
 1630TIP3   OH231812   4.264   2.767   6.871  0.7329  0.3304  0.4958
 1630TIP3    H131813   4.339   2.777   6.928  0.9032  0.1291  0.3108
 1630TIP3    H231814   4.269   2.841   6.810  1.6452 -0.5044 -0.4843
 1631TIP3   OH231815   0.823   3.513   6.893 -0.0206  0.2867 -0.2884
 1631TIP3    H131816   0.755   3.557   6.842  0.1533  0.1438 -0.6450
 1631TIP3    H231817   0.804   3.420   6.882 -0.6439  0.2707  0.8105
 1632TIP3   OH231818   7.340   6.264   5.107  0.4535 -0.0133 -0.0639
 1632TIP3    H131819   7.374   6.216   5.031 -0.1312 -0.5957  0.0381
 1632TIP3    H231820   7.247   6.273   5.090  0.4222  0.3996  0.2998
 1633TIP3   OH231821   6.550   6.197   1.956 -0.1550  0.2070 -0.3735
 1633TIP3    H131822   6.538   6.102   1.962 -0.3236  0.2450 -0.1176
 1633TIP3    H231823   6.635   6.207   1.913 -0.6507 -0.0604 -1.4617
 1634TIP3   OH231824   0.572   4.645   0.126  0.2825  0.4703 -0.0716
 1634TIP3    H131825   0.611   4.557   0.124  0.7229  0.6689 -2.0266
 1634TIP3    H231826   0.535   4.657   0.039 -1.8903  1.3440  0.9024
 1635TIP3   OH231827   1.372   4.481   5.057 -0.8255  0.4055  0.2073
 1635TIP3    H131828   1.382   4.563   5.010  1.1567 -0.1418 -0.4449
 1635TIP3    H231829   1.426   4.491   5.136 -2.0824  0.3788  1.1130
 1636TIP3   OH231830   3.621   6.014   1.823  0.1701  0.1804 -0.4168
 1636TIP3    H131831   3.542   6.067   1.809 -0.2194 -0.5682 -1.1461
 1636TIP3    H231832   3.628   6.006   1.918  0.7090  2.2138 -0.2452
 1637TIP3   OH231833   6.218   3.105   5.194 -0.2341 -0.0001 -0.0331
 1637TIP3    H131834   6.140   3.159   5.203 -0.3178  0.0889 -1.1294
 1637TIP3    H231835   6.279   3.160   5.145  1.2245  0.6330  2.3425
 1638TIP3   OH231836   7.022   1.992   1.351  0.1423 -0.5340  0.1224
 1638TIP3    H131837   7.048   2.027   1.436 -3.1319  0.3721  0.9062
 1638TIP3    H231838   7.061   2.052   1.287  1.1866 -0.2026  1.0455
 1639TIP3   OH231839   0.233   4.586   6.312 -0.1086  0.4732 -0.3418
 1639TIP3    H131840   0.273   4.613   6.395  1.6693 -1.9982 -0.2919
 1639TIP3    H231841   0.279   4.639   6.246  1.7388 -0.6905 -0.0728
 1640TIP3   OH231842   1.042   4.090   6.121 -0.1090 -0.2800 -0.1821
 1640TIP3    H131843   1.069   4.085   6.030  0.2831 -0.8566 -0.0385
 1640TIP3    H231844   1.124   4.090   6.170 -0.3371 -1.2209  0.2261
 1641TIP3   OH231845   5.633   6.696   0.000  0.9618  0.6159 -0.1808
 1641TIP3    H131846   5.694   6.766   0.026  0.7842  0.2504  1.3362
 1641TIP3    H231847   5.690   6.623   7.047  1.1323  0.9827 -0.9409
 1642TIP3   OH231848   5.043   4.807   0.033  0.3957 -0.1523  0.1143
 1642TIP3    H131849   5.135   4.778   0.030  0.5554  0.3213  0.3414
 1642TIP3    H231850   4.993   4.726   0.043  0.8127 -0.3843  0.3497
 1643TIP3   OH231851   1.767   6.551   0.895 -0.7906 -0.0990  0.3698
 1643TIP3    H131852   1.672   6.560   0.898 -0.9258 -1.4716  0.9261
 1643TIP3    H231853   1.795   6.561   0.986 -0.5205 -0.7893  0.3629
 1644TIP3   OH231854   1.979   7.351   0.113  0.5798 -0.1904 -0.0656
 1644TIP3    H131855   1.886   7.331   0.101  0.9056 -0.7252 -2.1554
 1644TIP3    H231856   2.024   7.290   0.054  2.2018  0.6693  0.2325
 1645TIP3   OH231857   5.570   4.598   6.139  0.3929 -0.5380  0.1053
 1645TIP3    H131858   5.535   4.574   6.224 -3.0383  1.4822 -0.5226
 1645TIP3    H231859   5.506   4.566   6.076  1.1045  0.8965 -1.4518
 1646TIP3   OH231860   2.804   6.608   7.017  0.0951 -0.2868 -0.6559
 1646TIP3    H131861   2.859   6.533   6.995 -0.7409 -0.6554 -1.6206
 1646TIP3    H231862   2.862   6.669   7.063  1.1920 -0.8170 -1.2990
 1647TIP3   OH231863   1.855   7.414   1.341  0.1890 -0.0660 -0.0874
 1647TIP3    H131864   1.789   7.472   1.379  0.1911  0.3792 -0.7547
 1647TIP3    H231865   1.939   7.451   1.369  0.2303  0.9707 -1.4963
 1648TIP3   OH231866   0.679   6.654   6.103 -0.1604 -0.1419  0.0081
 1648TIP3    H131867   0.682   6.743   6.138 -1.7593  0.1478 -0.5312
 1648TIP3    H231868   0.607   6.611   6.150 -0.7791 -0.4860 -1.2166
 1649TIP3   OH231869   4.555   3.300   0.891  0.2417 -0.1522 -0.5332
 1649TIP3    H131870   4.584   3.274   0.978 -0.8791  0.8136  0.1653
 1649TIP3    H231871   4.620   3.364   0.862 -0.1968  0.7074  0.2910
 1650TIP3   OH231872   3.617   6.460   0.309 -0.4855 -0.0590 -0.3565
 1650TIP3    H131873   3.602   6.480   0.401  1.3802  1.7071 -0.3614
 1650TIP3    H231874   3.670   6.380   0.310  0.8543  0.8007  0.2191
 1651TIP3   OH231875   5.910   2.694   1.108  0.6431 -0.1484  0.4739
 1651TIP3    H131876   5.973   2.623   1.098  1.6262  0.8003 -0.4530
 1651TIP3    H231877   5.826   2.651   1.118  0.9828 -1.4607 -1.6452
 1652TIP3   OH231878   5.067   2.146   0.655  0.3823  0.5525 -0.1980
 1652TIP3    H131879   5.098   2.165   0.743  1.4321  0.5069 -0.5408
 1652TIP3    H231880   5.127   2.194   0.597 -1.6198  2.4642 -0.8659
 1653TIP3   OH231881   0.969   5.762   1.073 -0.1189 -0.2801 -0.1919
 1653TIP3    H131882   1.049   5.762   1.126  0.2111 -1.2971 -0.6606
 1653TIP3    H231883   0.963   5.672   1.040 -1.4428 -0.2016 -0.1940
 1654TIP3   OH231884   5.590   0.179   5.900 -0.1700  0.2346  0.0248
 1654TIP3    H131885   5.579   0.237   5.824 -1.4676  0.4949  0.3806
 1654TIP3    H231886   5.590   0.237   5.975 -0.1044 -0.1174  0.3002
 1655TIP3   OH231887   3.827   2.943   5.564  0.1811  0.2191  0.1887
 1655TIP3    H131888   3.873   2.862   5.541 -1.7092 -0.7582 -0.3486
 1655TIP3    H231889   3.816   2.988   5.480  0.3939  0.5818  0.3551
 1656TIP3   OH231890   2.941   7.792   6.786 -0.4293  0.4738  0.1187
 1656TIP3    H131891   3.031   7.797   6.819 -0.3096 -0.1669 -0.1081
 1656TIP3    H231892   2.886   7.807   6.863 -0.1352  0.5150  0.3227
 1657TIP3   OH231893   1.384   2.841   0.036 -0.6556  0.4289  0.6800
 1657TIP3    H131894   1.415   2.753   0.057 -2.1112 -0.3506 -0.2533
 1657TIP3    H231895   1.453   2.879   7.053 -0.2950 -0.3993  0.5454
 1658TIP3   OH231896   5.905   6.375   6.441 -0.1079  0.3232 -0.2508
 1658TIP3    H131897   5.963   6.360   6.516 -0.7244  1.6221  0.5171
 1658TIP3    H231898   5.864   6.290   6.426 -0.0328  0.0511  0.9542
 1659TIP3   OH231899   7.221   1.058   5.958  0.3648 -0.2310  0.1505
 1659TIP3    H131900   7.219   0.963   5.965  0.8716 -0.2796 -0.3329
 1659TIP3    H231901   7.303   1.084   5.999  1.3995 -0.2058 -1.8193
 1660TIP3   OH231902   4.423   2.370   6.674 -0.2498 -0.0365  0.0181
 1660TIP3    H131903   4.387   2.319   6.602  0.3006  0.7651 -0.8472
 1660TIP3    H231904   4.447   2.454   6.634  0.9334  0.0816  0.9399
 1661TIP3   OH231905   3.502   1.482   1.122  0.6436 -0.1894  0.3635
 1661TIP3    H131906   3.422   1.432   1.134  0.4151  0.3233  0.9814
 1661TIP3    H231907   3.509   1.494   1.027 -1.6088  2.3142  0.4150
 1662TIP3   OH231908   2.136   5.902   0.383 -0.5005 -0.3226 -0.0222
 1662TIP3    H131909   2.086   5.905   0.301  0.4652 -1.6086 -0.6886
 1662TIP3    H231910   2.104   5.824   0.428 -1.6774  0.8574  1.3174
 1663TIP3   OH231911   4.934   7.102   6.619  0.4833  0.0183  0.0380
 1663TIP3    H131912   4.851   7.147   6.601  0.9684  0.5860 -0.8464
 1663TIP3    H231913   4.916   7.011   6.598 -0.5712 -0.2922  2.0345
 1664TIP3   OH231914   4.637   4.815   0.810 -0.4143 -0.3651 -0.4874
 1664TIP3    H131915   4.685   4.799   0.729 -1.3349 -0.9219 -0.9401
 1664TIP3    H231916   4.632   4.911   0.816  1.6825 -0.2402  0.1601
 1665TIP3   OH231917   3.692   5.710   1.927 -0.4390 -0.2304 -0.1335
 1665TIP3    H131918   3.756   5.733   1.993  0.3037 -0.6285 -0.6981
 1665TIP3    H231919   3.644   5.636   1.964 -0.5638  0.0581  0.2817
 1666TIP3   OH231920   2.124   1.237   5.198  0.3668 -0.2077 -0.1124
 1666TIP3    H131921   2.173   1.157   5.221  0.1768 -0.4932 -0.6797
 1666TIP3    H231922   2.045   1.205   5.156  1.3610  0.2862 -2.5080
 1667TIP3   OH231923   1.806   7.879   1.910 -0.7669  0.2393  0.4332
 1667TIP3    H131924   1.754   7.957   1.892 -0.8068  0.3271  0.8970
 1667TIP3    H231925   1.816   7.836   1.825 -1.7135  0.1455  0.3567
 1668TIP3   OH231926   4.787   1.748   5.896 -0.1392 -0.3208  0.3242
 1668TIP3    H131927   4.704   1.773   5.937 -0.2019  0.2998 -0.1669
 1668TIP3    H231928   4.777   1.654   5.877 -0.8324 -0.1972  0.0347
 1669TIP3   OH231929   8.066   5.548   6.237  0.1273  0.0695 -0.1340
 1669TIP3    H131930   8.056   5.517   6.327 -2.8371  1.7117  0.2276
 1669TIP3    H231931   8.103   5.636   6.246 -1.3660  0.7576 -0.3520
 1670TIP3   OH231932   0.347   5.921   1.027  0.3593  0.1134  0.3046
 1670TIP3    H131933   0.314   5.841   0.985 -1.4378  0.8273  0.2742
 1670TIP3    H231934   0.325   5.911   1.119  0.5693  0.3614  0.3839
 1671TIP3   OH231935   7.841   6.364   5.900 -0.5855  0.1316 -0.0340
 1671TIP3    H131936   7.759   6.367   5.850 -0.8617 -0.2213  0.4007
 1671TIP3    H231937   7.846   6.275   5.933  0.7776 -0.3495 -1.3902
 1672TIP3   OH231938   0.789   7.680   5.815 -0.9090 -0.3984 -0.3519
 1672TIP3    H131939   0.809   7.749   5.752 -1.9017  0.1861 -0.0501
 1672TIP3    H231940   0.695   7.665   5.804 -0.3427 -3.4497 -2.1434
 1673TIP3   OH231941   4.122   7.538   7.014  0.1803 -0.4143  0.9610
 1673TIP3    H131942   4.196   7.583   6.973 -0.8265  1.6367  1.2578
 1673TIP3    H231943   4.056   7.533   6.944 -0.0784 -0.5420  1.2134
 1674TIP3   OH231944   7.128   8.456   6.242 -0.2302 -0.2207  0.2452
 1674TIP3    H131945   7.051   8.399   6.228  0.0195 -0.9881  1.7493
 1674TIP3    H231946   7.173   8.456   6.157 -0.6519 -1.6636 -0.0158
 1675TIP3   OH231947   2.322   3.410   6.550 -0.5455  0.6719 -0.1142
 1675TIP3    H131948   2.358   3.440   6.466 -0.7841 -0.3819 -0.6211
 1675TIP3    H231949   2.287   3.489   6.591 -1.1324  1.0923 -1.3658
 1676TIP3   OH231950   2.832   3.469   6.572  0.1259  0.1973  0.0288
 1676TIP3    H131951   2.773   3.477   6.497 -0.0651 -1.2138 -0.0076
 1676TIP3    H231952   2.915   3.505   6.542 -0.3028  0.8181 -0.4272
 1677TIP3   OH231953   5.963   3.345   6.185 -0.7574 -0.3195  0.6441
 1677TIP3    H131954   6.057   3.361   6.197 -0.3974 -2.2720  0.8861
 1677TIP3    H231955   5.948   3.357   6.092 -0.3209  0.2233  0.6385
 1678TIP3   OH231956   2.981   7.257   0.691 -0.3892  0.4604  0.0962
 1678TIP3    H131957   2.994   7.164   0.674 -3.4255 -0.1910  0.7076
 1678TIP3    H231958   3.032   7.301   0.623  1.6631 -1.5842  0.2036
 1679TIP3   OH231959   3.646   1.714   6.350  0.3784 -0.1824  0.3259
 1679TIP3    H131960   3.617   1.766   6.275  2.4015 -0.0736 -0.4301
 1679TIP3    H231961   3.584   1.642   6.355 -0.6666  0.6288 -0.5034
 1680TIP3   OH231962   3.750   6.240   6.363  0.4642  0.0137  0.0576
 1680TIP3    H131963   3.791   6.204   6.441 -0.6550  2.2319  1.7912
 1680TIP3    H231964   3.696   6.169   6.329  1.3568 -1.1537  0.9888
 1681TIP3   OH231965   4.748   6.405   5.851  0.1108  0.6118  0.1893
 1681TIP3    H131966   4.771   6.404   5.758  0.6800  0.0281  0.3317
 1681TIP3    H231967   4.804   6.473   5.889  0.0888  0.6441  0.1639
 1682TIP3   OH231968   5.417   3.595   6.927 -0.3862 -0.4052 -0.4267
 1682TIP3    H131969   5.470   3.631   6.856 -0.4354  0.4542 -0.0305
 1682TIP3    H231970   5.357   3.665   6.951 -0.9936 -1.0063 -0.1434
 1683TIP3   OH231971   8.216   4.227   0.012 -0.1591 -0.0485  0.7812
 1683TIP3    H131972   8.195   4.149   7.031  0.7060 -0.4602  1.0401
 1683TIP3    H231973   8.306   4.213   0.041 -0.0527  0.9775  0.9628
 1684TIP3   OH231974   2.795   3.831   5.099 -0.2715  0.4476 -0.1011
 1684TIP3    H131975   2.770   3.860   5.186  1.7260 -2.0679  1.4500
 1684TIP3    H231976   2.774   3.738   5.098 -0.4886  0.4539 -2.4731
 1685TIP3   OH231977   3.536   0.962   6.154 -0.4109  0.2492  0.2647
 1685TIP3    H131978   3.519   0.968   6.248  1.3525  2.4400  0.5184
 1685TIP3    H231979   3.516   1.049   6.120 -2.1507 -0.8085 -1.6720
 1686TIP3   OH231980   6.774   3.184   5.978  0.4173 -0.6603  0.7886
 1686TIP3    H131981   6.763   3.268   5.935  0.3926 -1.1844 -0.2426
 1686TIP3    H231982   6.792   3.206   6.070 -2.3159  0.3990  1.1612
 1687TIP3   OH231983   4.329   1.399   0.556  0.4739  0.5356  0.1276
 1687TIP3    H131984   4.403   1.453   0.586  0.9692 -0.0942  0.0792
 1687TIP3    H231985   4.278   1.383   0.635  0.0914  1.4190  0.0648
 1688TIP3   OH231986   3.225   1.760   0.337  0.7594 -0.1144  0.1876
 1688TIP3    H131987   3.173   1.816   0.394  1.4504 -1.0714  1.8371
 1688TIP3    H231988   3.287   1.820   0.294  1.5116  0.4307  1.9342
 1689TIP3   OH231989   5.993   0.856   1.089 -0.2297 -0.0230  0.0177
 1689TIP3    H131990   6.018   0.933   1.038  0.9739 -0.7070 -0.4534
 1689TIP3    H231991   5.918   0.886   1.141  0.2143  1.4663 -0.1436
 1690TIP3   OH231992   8.260   1.416   0.117 -0.3734  0.0113 -0.6240
 1690TIP3    H131993   8.304   1.332   0.113  0.3854  0.2693  1.1178
 1690TIP3    H231994   8.228   1.432   0.029  0.0756 -1.7716 -1.1304
 1691TIP3   OH231995   7.030   5.783   0.694 -0.0468  0.1887 -0.4792
 1691TIP3    H131996   7.054   5.821   0.778 -0.0752  1.8651 -1.1771
 1691TIP3    H231997   7.110   5.789   0.641  0.3893 -2.1353 -0.2000
 1692TIP3   OH231998   3.876   6.987   6.447  0.3590 -0.5693  0.2243
 1692TIP3    H131999   3.890   7.017   6.536 -1.3660 -1.8081  0.9878
 1692TIP3    H232000   3.800   6.928   6.453  0.9813 -1.7018 -1.8446
 1693TIP3   OH232001   8.293   5.699   1.551 -0.0704  0.0899  0.3506
 1693TIP3    H132002   8.222   5.689   1.487  1.2685  0.2281 -1.2210
 1693TIP3    H232003   8.324   5.789   1.538  0.4590 -0.0026  0.9501
 1694TIP3   OH232004   5.587   4.902   0.185  0.2606 -0.0529  0.3885
 1694TIP3    H132005   5.641   4.840   0.135  1.2079  1.5615 -0.6828
 1694TIP3    H232006   5.591   4.983   0.134 -3.3107  0.1695  0.1795
 1695TIP3   OH232007   8.080   6.537   5.525  0.3808  0.2354 -0.3671
 1695TIP3    H132008   7.992   6.523   5.490  0.6998 -1.5968 -0.5328
 1695TIP3    H232009   8.088   6.632   5.533 -2.4119  0.4048  1.7681
 1696TIP3   OH232010   4.699   8.213   6.397 -0.5399  1.2097  0.1276
 1696TIP3    H132011   4.650   8.286   6.434 -0.8100  0.4342  1.3550
 1696TIP3    H232012   4.771   8.199   6.459 -0.7931  0.1126  0.1927
 1697TIP3   OH232013   5.816   5.354   5.358  0.7951 -0.2357 -0.1535
 1697TIP3    H132014   5.813   5.407   5.278  0.5252 -2.8640 -2.0239
 1697TIP3    H232015   5.734   5.374   5.403  1.4370  2.1071  0.1159
 1698TIP3   OH232016   7.593   4.413   4.967 -0.8596 -0.7642 -0.3958
 1698TIP3    H132017   7.540   4.461   5.032  0.3168  0.1637 -0.0859
 1698TIP3    H232018   7.542   4.419   4.886 -1.0908  0.4139 -0.1877
 1699TIP3   OH232019   1.335   1.864   6.059  0.2653  0.3033 -0.2313
 1699TIP3    H132020   1.420   1.820   6.067 -0.1414 -0.2517  1.4307
 1699TIP3    H232021   1.354   1.956   6.080  0.3546  0.0675  0.7282
 1700TIP3   OH232022   4.552   3.721   0.673  0.7162  0.1677 -0.0449
 1700TIP3    H132023   4.464   3.683   0.667  1.2377 -0.9833 -0.8714
 1700TIP3    H232024   4.578   3.705   0.764 -0.0088  0.7227  0.2696
 1701TIP3   OH232025   2.785   7.518   0.933 -0.1831  0.0815 -0.3756
 1701TIP3    H132026   2.717   7.500   0.869 -1.1066  2.0835 -0.0168
 1701TIP3    H232027   2.755   7.474   1.013 -0.7553  0.4676 -0.3778
 1702TIP3   OH232028   1.487   3.397   6.063 -0.5424 -0.0932 -0.1303
 1702TIP3    H132029   1.433   3.320   6.045  0.1603  0.0174 -3.2938
 1702TIP3    H232030   1.577   3.366   6.056 -0.2308  1.1277 -2.6990
 1703TIP3   OH232031   3.006   0.638   0.033 -0.3712  0.7407 -0.4535
 1703TIP3    H132032   3.060   0.702   7.057  0.1304  0.2207 -0.5975
 1703TIP3    H232033   3.069   0.578   0.073 -0.8431  0.1421 -0.5933
 1704TIP3   OH232034   2.369   5.572   5.831 -0.0243  0.3526  0.2457
 1704TIP3    H132035   2.287   5.618   5.850  0.2288  0.3202  1.5054
 1704TIP3    H232036   2.429   5.640   5.801 -0.3987  0.4316 -0.3411
 1705TIP3   OH232037   3.197   3.112   6.874 -0.5915  0.2570 -0.5304
 1705TIP3    H132038   3.169   3.128   6.964  1.4154  2.1755 -0.1799
 1705TIP3    H232039   3.147   3.176   6.822 -2.2179 -1.2583 -0.9520
 1706TIP3   OH232040   2.246   8.208   6.494  0.8463 -0.5061  0.1977
 1706TIP3    H132041   2.229   8.114   6.486  1.8021 -0.6040 -0.9101
 1706TIP3    H232042   2.265   8.220   6.587  0.0244 -1.2850  0.4777
 1707TIP3   OH232043   6.473   4.711   6.842 -0.2610 -0.0736  0.4364
 1707TIP3    H132044   6.427   4.791   6.867  1.6165  1.0537  0.5331
 1707TIP3    H232045   6.464   4.653   6.917  0.0696  0.8687  1.2343
 1708TIP3   OH232046   8.391   7.534   0.464 -0.4997  0.1342 -0.2188
 1708TIP3    H132047   8.467   7.561   0.515 -1.3949 -0.8786  1.8001
 1708TIP3    H232048   8.425   7.474   0.398  0.6684  1.2408 -0.6514
 1709TIP3   OH232049   6.868   8.385   1.692  0.3525 -0.0690 -0.2999
 1709TIP3    H132050   6.877   8.319   1.761  0.3094  0.8119  0.5705
 1709TIP3    H232051   6.906   8.344   1.614 -0.2730 -1.3639  0.0475
 1710TIP3   OH232052   6.067   5.044   5.636 -0.0856  0.0577  0.6115
 1710TIP3    H132053   6.020   5.082   5.710 -1.4770 -3.1817  1.5761
 1710TIP3    H232054   6.010   5.059   5.560  0.1622  1.2079  0.6359
 1711TIP3   OH232055   0.617   6.995   5.980 -0.1893 -0.5755  0.2155
 1711TIP3    H132056   0.571   7.073   6.011  0.5785 -0.4012  0.9244
 1711TIP3    H232057   0.674   6.970   6.052 -0.2258 -1.6438 -0.1100
 1712TIP3   OH232058   5.586   0.180   0.359 -0.3737  0.0536  0.3053
 1712TIP3    H132059   5.580   0.160   0.266  1.3376 -0.4375  0.2698
 1712TIP3    H232060   5.603   0.275   0.362 -0.4774  0.0784  0.1170
 1713TIP3   OH232061   2.987   6.035   5.660 -0.3273 -0.4469  0.0753
 1713TIP3    H132062   3.005   6.121   5.697  1.0202 -0.8557  0.4282
 1713TIP3    H232063   2.918   6.051   5.596  0.4963  1.0584 -0.5079
 1714TIP3   OH232064   1.033   7.747   7.069 -0.3880 -0.1203 -0.2361
 1714TIP3    H132065   1.092   7.717   0.067 -2.0659 -0.9443  0.9028
 1714TIP3    H232066   1.079   7.821   7.029 -0.2453  1.8757  3.2414
 1715TIP3   OH232067   5.423   5.893   1.818 -0.2901  0.0412 -0.0223
 1715TIP3    H132068   5.494   5.898   1.883 -0.0755 -0.5591 -0.2044
 1715TIP3    H232069   5.460   5.841   1.747 -0.6310  0.4508 -0.4963
 1716TIP3   OH232070   3.448   1.877   6.219 -0.0402  0.7185  1.0209
 1716TIP3    H132071   3.442   1.969   6.244 -1.1766  0.7027  0.8453
 1716TIP3    H232072   3.409   1.830   6.292  0.9492  0.3252  1.3151
 1717TIP3   OH232073   3.793   6.751   5.855  0.1885  0.0349  0.4295
 1717TIP3    H132074   3.736   6.691   5.808 -0.7865  0.6388  0.7995
 1717TIP3    H232075   3.739   6.783   5.928 -0.5972  3.8303 -1.5224
 1718TIP3   OH232076   4.762   6.612   1.586  0.0054 -0.1652 -0.6103
 1718TIP3    H132077   4.690   6.649   1.536  1.3414 -0.4537 -2.8633
 1718TIP3    H232078   4.802   6.687   1.631 -0.2282  0.3666 -1.2859
 1719TIP3   OH232079   1.547   2.573   4.979  0.2544  0.3200 -0.2288
 1719TIP3    H132080   1.455   2.570   4.952  0.4373 -0.5417 -0.8244
 1719TIP3    H232081   1.586   2.641   4.924 -0.0135  0.6533 -0.0079
 1720TIP3   OH232082   5.309   1.191   6.568 -0.7687  0.5982  0.1720
 1720TIP3    H132083   5.360   1.176   6.648 -2.5078  0.9028  1.3937
 1720TIP3    H232084   5.239   1.126   6.572 -0.2584 -0.1406 -1.7230
 1721TIP3   OH232085   5.848   4.129   0.917 -0.0481 -0.0490  0.2657
 1721TIP3    H132086   5.916   4.166   0.974  0.2846  0.5751 -0.5122
 1721TIP3    H232087   5.850   4.185   0.839 -1.5950  0.1123  0.3081
 1722TIP3   OH232088   1.461   2.150   6.719  0.4929  0.2549  0.4190
 1722TIP3    H132089   1.443   2.241   6.695 -1.9284  0.4153  2.4424
 1722TIP3    H232090   1.554   2.148   6.740  0.4233  2.5042  1.1642
 1723TIP3   OH232091   0.098   3.730   0.523  0.6109  0.3301 -0.0704
 1723TIP3    H132092   0.175   3.786   0.512  0.7113  0.0287 -0.9736
 1723TIP3    H232093   0.129   3.642   0.503 -0.1777  0.3313 -1.4212
 1724TIP3   OH232094   3.445   2.427   0.468  0.0626  0.2473  0.3390
 1724TIP3    H132095   3.523   2.372   0.461 -0.2363 -0.2816  1.0969
 1724TIP3    H232096   3.469   2.495   0.531 -0.0505  0.1380  0.5021
 1725TIP3   OH232097   8.165   2.597   0.637 -0.4385 -0.1034 -0.8124
 1725TIP3    H132098   8.227   2.598   0.564 -1.1226  0.5471 -1.3989
 1725TIP3    H232099   8.182   2.678   0.685 -0.6418 -0.0646 -0.8046
 1726TIP3   OH232100   6.348   3.368   1.384 -0.3219  0.2129  0.1883
 1726TIP3    H132101   6.352   3.299   1.451  2.8198 -1.1506 -1.2175
 1726TIP3    H232102   6.371   3.448   1.431  0.3050 -0.4531  1.0638
 1727TIP3   OH232103   3.245   4.891   6.180  0.2116 -0.0601 -0.2286
 1727TIP3    H132104   3.299   4.918   6.106  0.6996 -1.0453 -0.2576
 1727TIP3    H232105   3.308   4.870   6.249 -0.2629  1.9008  0.8859
 1728TIP3   OH232106   6.581   0.757   1.378  0.3608 -0.6899  0.5746
 1728TIP3    H132107   6.530   0.695   1.325  1.1458 -1.7266  0.9963
 1728TIP3    H232108   6.673   0.738   1.356  0.7172 -1.2469  2.3907
 1729TIP3   OH232109   4.219   6.081   0.540 -0.1426 -0.2372 -0.2577
 1729TIP3    H132110   4.171   6.104   0.620 -0.4562 -1.2014 -0.1499
 1729TIP3    H232111   4.293   6.141   0.538 -0.8994  0.7358  0.0119
 1730TIP3   OH232112   0.722   0.687   1.466 -0.6259 -0.0514  0.5473
 1730TIP3    H132113   0.673   0.695   1.548 -0.6656 -1.7029  0.7046
 1730TIP3    H232114   0.774   0.767   1.461 -2.2098  1.0768  1.1110
 1731TIP3   OH232115   8.194   5.827   5.895  0.7631 -0.1127  0.3275
 1731TIP3    H132116   8.280   5.784   5.893  0.2822 -1.1619 -2.5263
 1731TIP3    H232117   8.197   5.891   5.824 -0.7800 -0.1170  0.2176
 1732TIP3   OH232118   7.567   4.547   1.181 -0.2668 -0.2990 -0.0690
 1732TIP3    H132119   7.626   4.548   1.105 -0.5580  0.8924 -0.2956
 1732TIP3    H232120   7.625   4.552   1.256  0.0270 -1.4924 -0.1995
 1733TIP3   OH232121   5.405   4.480   5.787  0.2724 -0.4153 -0.7198
 1733TIP3    H132122   5.447   4.557   5.823  0.2084  0.2429 -1.9891
 1733TIP3    H232123   5.442   4.471   5.699 -0.3265 -1.3460 -0.8939
 1734TIP3   OH232124   8.018   2.726   6.358  0.3477 -0.2475  0.5644
 1734TIP3    H132125   7.969   2.681   6.290 -0.0327  1.7286 -0.5602
 1734TIP3    H232126   8.109   2.699   6.343 -0.0736 -2.1659  1.2292
 1735TIP3   OH232127   3.294   8.518   0.942 -0.0989  0.3346 -0.1322
 1735TIP3    H132128   3.265   8.529   1.032 -0.9862 -0.8048 -0.2606
 1735TIP3    H232129   3.214   8.517   0.890  0.3924  0.8461 -0.9297
 1736TIP3   OH232130   5.177   2.731   0.938 -0.2027  0.2359  0.2001
 1736TIP3    H132131   5.081   2.723   0.935 -0.1704 -0.4257  0.6823
 1736TIP3    H232132   5.208   2.660   0.882  0.0084  0.2820  0.2611
 1737TIP3   OH232133   7.784   2.334   6.421  0.3903  0.5707 -0.5996
 1737TIP3    H132134   7.690   2.323   6.405  0.4401  0.5780 -0.9023
 1737TIP3    H232135   7.789   2.407   6.482  0.2427  1.1037 -1.2167
 1738TIP3   OH232136   7.183   1.079   7.070 -0.0328 -0.1798  0.2403
 1738TIP3    H132137   7.089   1.096   7.069  0.1874  1.0462 -0.4338
 1738TIP3    H232138   7.190   0.986   0.022 -1.3383  0.0949  1.8792
 1739TIP3   OH232139   6.227   6.039   5.798 -0.1671  0.1494  0.2242
 1739TIP3    H132140   6.293   6.066   5.862  1.0541 -0.7402 -0.6117
 1739TIP3    H232141   6.247   6.091   5.720 -0.6395  0.0858  0.0607
 1740TIP3   OH232142   3.911   1.314   0.544  0.0146 -0.7544 -0.1231
 1740TIP3    H132143   3.832   1.299   0.492  0.3537  1.0764 -1.2379
 1740TIP3    H232144   3.973   1.249   0.511 -1.1589 -2.6793  1.2354
 1741TIP3   OH232145   0.905   7.166   6.175  0.0671 -0.1875 -0.4036
 1741TIP3    H132146   0.821   7.124   6.157 -0.6632  0.2327  1.7554
 1741TIP3    H232147   0.921   7.150   6.268  0.8632  2.3523 -0.0199
 1742TIP3   OH232148   4.021   0.917   6.524 -0.3854  0.2060 -0.1342
 1742TIP3    H132149   4.110   0.889   6.505  0.0997  0.9301  0.9501
 1742TIP3    H232150   4.029   0.971   6.603 -2.1196 -1.9990  1.7358
 1743TIP3   OH232151   5.634   7.349   5.229  0.5736 -0.3149  0.3305
 1743TIP3    H132152   5.575   7.388   5.164 -0.9882  0.2749  2.0208
 1743TIP3    H232153   5.602   7.259   5.238  0.2872 -0.1720  0.8031
 1744TIP3   OH232154   6.968   1.887   6.522 -0.7374  0.4944 -0.5173
 1744TIP3    H132155   6.998   1.912   6.435 -0.3755  0.1697 -0.4868
 1744TIP3    H232156   7.045   1.850   6.565 -1.0069  0.2956 -0.1949
 1745TIP3   OH232157   7.155   2.669   0.635  0.4425 -0.0605 -0.2028
 1745TIP3    H132158   7.157   2.574   0.622  2.2838 -0.4076  1.8976
 1745TIP3    H232159   7.232   2.701   0.588  3.6126 -0.5845  3.9998
 1746TIP3   OH232160   7.535   3.530   6.943  0.1739  0.0986 -0.3558
 1746TIP3    H132161   7.463   3.475   6.975 -0.0311  1.4386  1.6528
 1746TIP3    H232162   7.491   3.596   6.889 -0.1577  0.9599  0.9278
 1747TIP3   OH232163   8.412   3.930   5.632 -0.2637 -0.2302 -0.9552
 1747TIP3    H132164   8.488   3.873   5.619 -0.6627 -0.8593 -0.6064
 1747TIP3    H232165   8.362   3.924   5.551 -1.0066 -1.4806 -0.4454
 1748TIP3   OH232166   6.184   7.847   0.472 -0.3571 -0.2732 -0.5939
 1748TIP3    H132167   6.268   7.870   0.513 -1.6349  0.6308  1.7176
 1748TIP3    H232168   6.189   7.752   0.461  0.5944 -0.3702  0.4445
 1749TIP3   OH232169   7.193   0.730   0.740  0.2620  0.1271  0.0570
 1749TIP3    H132170   7.199   0.651   0.687  1.4781 -0.2382  0.7012
 1749TIP3    H232171   7.264   0.785   0.709  0.2364  0.4154  0.5001
 1750TIP3   OH232172   6.294   7.745   6.846 -0.7576  0.4707 -0.0792
 1750TIP3    H132173   6.233   7.721   6.776 -0.5034  0.2496 -0.2288
 1750TIP3    H232174   6.247   7.809   6.899 -1.2244  0.0733 -0.0195
 1751TIP3   OH232175   5.088   0.474   5.461 -0.1132  0.3150  0.1597
 1751TIP3    H132176   5.009   0.521   5.488  0.9588  1.9648  0.5906
 1751TIP3    H232177   5.063   0.429   5.380 -1.0650  2.1211 -0.5983
 1752TIP3   OH232178   7.470   5.570   0.578  0.0632 -0.4016  0.4170
 1752TIP3    H132179   7.383   5.610   0.572 -0.0813 -0.8331 -0.5147
 1752TIP3    H232180   7.528   5.643   0.598 -0.4232 -0.0123  0.4472
 1753TIP3   OH232181   5.960   4.365   1.505 -0.0428 -0.3955  0.0307
 1753TIP3    H132182   5.976   4.456   1.478  0.1341 -0.3587  0.2524
 1753TIP3    H232183   5.867   4.363   1.528  0.3484  0.2218  1.8547
 1754TIP3   OH232184   0.269   0.030   6.383  0.0811  0.4558 -0.4022
 1754TIP3    H132185   0.359   0.049   6.358  0.2987  0.8431  0.6289
 1754TIP3    H232186   0.264   8.469   6.383  0.9529  0.3872  1.0449
 1755TIP3   OH232187   2.702   5.065   3.247 -0.2419 -0.1158 -0.2581
 1755TIP3    H132188   2.683   4.973   3.232  2.1396 -0.6869 -0.1760
 1755TIP3    H232189   2.663   5.111   3.173 -1.8975 -1.0981 -0.0333
 1756TIP3   OH232190   6.695   3.520   2.177 -0.2934  0.1736  0.3385
 1756TIP3    H132191   6.605   3.538   2.151  0.2101 -1.5382 -3.2269
 1756TIP3    H232192   6.694   3.428   2.202  0.2927  0.4382  1.3791
 1757TIP3   OH232193   4.806   3.100   6.842 -0.0450 -0.5869  0.2366
 1757TIP3    H132194   4.713   3.082   6.853  0.0406 -0.9528  0.3824
 1757TIP3    H232195   4.824   3.083   6.750 -0.3756  0.6763 -0.0795
 1758TIP3   OH232196   4.436   6.426   1.738 -0.1651  0.5260  0.1989
 1758TIP3    H132197   4.394   6.489   1.679  0.5073  0.2205 -0.6083
 1758TIP3    H232198   4.378   6.425   1.815 -0.0253  2.3684  0.3803
 1759TIP3   OH232199   1.777   0.252   6.629  0.3138 -0.0043 -0.1247
 1759TIP3    H132200   1.834   0.180   6.601 -0.5688 -1.0566  0.6601
 1759TIP3    H232201   1.722   0.213   6.698  0.8894  1.8504  1.4661
 1760TIP3   OH232202   6.524   7.658   5.637  0.1967 -0.3402 -0.2924
 1760TIP3    H132203   6.574   7.592   5.685  1.4781  1.0441  0.3428
 1760TIP3    H232204   6.509   7.619   5.551  1.1066 -1.3669 -0.0029
 1761TIP3   OH232205   8.033   5.746   5.640  0.2106  0.1751 -1.3720
 1761TIP3    H132206   7.971   5.682   5.675  0.9612 -0.9163 -1.9892
 1761TIP3    H232207   7.995   5.771   5.555  0.4522 -0.2547 -1.6080
 1762TIP3   OH232208   0.243   5.227   6.660  0.2439 -0.1726  0.3645
 1762TIP3    H132209   0.214   5.309   6.701 -0.3969  0.5527 -1.4361
 1762TIP3    H232210   0.176   5.163   6.685 -0.3615  0.3533  0.1199
 1763TIP3   OH232211   4.032   7.735   6.309  0.1768 -0.2743 -0.5276
 1763TIP3    H132212   4.083   7.793   6.366  0.8551 -1.7338  0.4300
 1763TIP3    H232213   4.074   7.742   6.223  0.1524  0.7429 -0.4623
 1764TIP3   OH232214   5.321   1.455   6.585  0.2428  0.0829 -0.8043
 1764TIP3    H132215   5.287   1.499   6.508 -0.6167  1.5168  0.3425
 1764TIP3    H232216   5.330   1.363   6.559 -1.2944  0.2943 -2.1853
 1765TIP3   OH232217   7.456   5.412   5.039  0.5215 -0.2209  0.0102
 1765TIP3    H132218   7.403   5.477   4.994  1.9256 -1.5606 -4.1184
 1765TIP3    H232219   7.414   5.328   5.019  2.2194 -1.0251 -0.3868
 1766TIP3   OH232220   4.942   1.534   6.555 -0.0387 -0.1969  0.7338
 1766TIP3    H132221   4.874   1.491   6.503  0.0562 -1.9576  1.9863
 1766TIP3    H232222   4.958   1.617   6.510 -1.1964 -0.8777 -1.0246
 1767TIP3   OH232223   3.189   1.287   0.250 -0.0654 -0.3888  0.5112
 1767TIP3    H132224   3.229   1.207   0.215  0.7020 -0.1502  0.8094
 1767TIP3    H232225   3.201   1.280   0.345 -0.6436 -0.2582  0.5946
 1768TIP3   OH232226   5.195   2.923   0.295 -0.8386  0.2027 -0.2320
 1768TIP3    H132227   5.166   2.927   0.386 -0.4435 -0.2348 -0.0861
 1768TIP3    H232228   5.290   2.916   0.300 -0.7417  0.9829 -0.6955
 1769TIP3   OH232229   4.872   4.834   0.285  0.6131 -0.2609 -0.2988
 1769TIP3    H132230   4.901   4.792   0.204  2.7182 -0.0014  0.2395
 1769TIP3    H232231   4.905   4.923   0.279 -0.8583  0.3192  0.0368
 1770TIP3   OH232232   0.815   1.008   0.449  0.2399  0.0250  0.2198
 1770TIP3    H132233   0.876   0.947   0.490  0.5004  0.3897  0.3796
 1770TIP3    H232234   0.746   1.020   0.514  0.8731  0.9390  0.7377
 1771TIP3   OH232235   7.711   8.469   6.364 -0.4696 -0.4042  0.2375
 1771TIP3    H132236   7.620   8.464   6.334  0.1425  0.4925 -1.9851
 1771TIP3    H232237   7.754   8.527   6.300  1.3189  0.4740  2.1351
 1772TIP3   OH232238   6.893   2.481   7.033 -0.8883 -0.2759  0.0930
 1772TIP3    H132239   6.818   2.490   6.973 -1.5706 -0.6954  0.8620
 1772TIP3    H232240   6.954   2.424   6.986 -1.9344 -1.5690  0.2498
 1773TIP3   OH232241   3.467   4.999   0.918 -0.4653 -0.5470  0.5439
 1773TIP3    H132242   3.440   5.071   0.862 -0.9226 -1.0713  0.0792
 1773TIP3    H232243   3.456   5.033   1.007  0.5253  0.3829  0.3336
 1774TIP3   OH232244   1.663   0.589   5.345 -0.2680  0.3680  0.3642
 1774TIP3    H132245   1.612   0.662   5.379 -1.8019 -0.0206 -0.9592
 1774TIP3    H232246   1.645   0.590   5.251  0.7808 -0.8814  0.1295
 1775TIP3   OH232247   1.376   7.190   6.483  0.5535 -0.1100  0.3709
 1775TIP3    H132248   1.317   7.168   6.556  0.8689 -1.1303  0.3353
 1775TIP3    H232249   1.321   7.238   6.422  0.0990  0.1258  0.9494
 1776TIP3   OH232250   7.007   3.336   5.789  0.1225  0.1860  0.7599
 1776TIP3    H132251   6.946   3.263   5.776 -0.5711  0.5794  1.6970
 1776TIP3    H232252   6.956   3.414   5.766  1.1139  0.3475 -1.0584
 1777TIP3   OH232253   4.462   3.646   0.345  0.5566  0.3269 -0.2738
 1777TIP3    H132254   4.439   3.578   0.281 -0.8631  0.7840 -0.2894
 1777TIP3    H232255   4.448   3.604   0.430 -1.7866  1.0043 -0.2709
 1778TIP3   OH232256   8.165   6.530   0.732  0.4644 -0.3626  0.1508
 1778TIP3    H132257   8.226   6.457   0.736  1.2488  0.0737 -2.2207
 1778TIP3    H232258   8.218   6.607   0.754  0.1748 -0.2415  0.4421
 1779TIP3   OH232259   1.338   6.613   0.436  0.4959 -0.3554 -0.4471
 1779TIP3    H132260   1.344   6.605   0.341  0.4603  3.2369 -0.8821
 1779TIP3    H232261   1.251   6.581   0.458 -0.5427  1.1970 -2.0440
 1780TIP3   OH232262   4.473   1.304   7.005 -0.7927  0.1409  0.6899
 1780TIP3    H132263   4.466   1.316   0.029 -1.1411  1.2965  0.5262
 1780TIP3    H232264   4.523   1.222   6.995 -1.1269 -0.2228  1.8610
 1781TIP3   OH232265   1.611   3.318   1.181  0.3966 -0.0089 -0.3446
 1781TIP3    H132266   1.676   3.351   1.119  0.8064 -2.2092 -1.1812
 1781TIP3    H232267   1.584   3.395   1.231  3.1289  1.1190 -0.4302
 1782TIP3   OH232268   3.564   0.069   6.189  0.0447 -0.5061  0.7696
 1782TIP3    H132269   3.489   0.100   6.138  0.8758 -0.1840 -0.2884
 1782TIP3    H232270   3.531   0.062   6.278 -1.0699  0.2394  0.4368
 1783TIP3   OH232271   3.829   5.704   0.989 -0.0013  0.8240  0.0427
 1783TIP3    H132272   3.784   5.653   1.056 -0.2161  0.9303 -0.0214
 1783TIP3    H232273   3.854   5.640   0.922 -0.3377  0.8173 -0.0745
 1784TIP3   OH232274   3.316   2.533   6.286  0.1502 -0.2114 -0.6497
 1784TIP3    H132275   3.407   2.505   6.298  0.4219  0.8193 -0.1848
 1784TIP3    H232276   3.311   2.618   6.330 -1.5049 -1.0531  0.9002
 1785TIP3   OH232277   7.642   2.835   1.342 -0.2470  0.5186  0.2817
 1785TIP3    H132278   7.707   2.780   1.299  0.2599  0.5361  1.0006
 1785TIP3    H232279   7.578   2.855   1.274 -0.0640 -0.3720 -0.1632
 1786TIP3   OH232280   4.730   1.566   1.882 -0.0450  0.3912 -0.4458
 1786TIP3    H132281   4.671   1.634   1.850  0.1871  0.3868 -0.8924
 1786TIP3    H232282   4.671   1.495   1.911 -0.2607  0.3757 -0.9101
 1787TIP3   OH232283   3.603   1.910   5.285  0.0958 -0.1107 -0.3810
 1787TIP3    H132284   3.535   1.943   5.227  0.6477  2.2080  0.1994
 1787TIP3    H232285   3.614   1.978   5.351  0.0444 -2.3062  2.0367
 1788TIP3   OH232286   8.446   2.386   0.752 -0.2439 -0.2766 -0.5167
 1788TIP3    H132287   8.510   2.455   0.731  0.6865 -0.8076  0.4680
 1788TIP3    H232288   8.439   2.335   0.671 -0.3861  0.5397 -1.0244
 1789TIP3   OH232289   6.944   3.673   5.213  0.1756 -0.6681  0.3342
 1789TIP3    H132290   6.932   3.582   5.240 -2.8254 -0.8551 -1.1957
 1789TIP3    H232291   6.875   3.721   5.258  1.6656  0.9041  1.0596
 1790TIP3   OH232292   6.791   8.509   0.261 -0.2581 -0.0688  0.5761
 1790TIP3    H132293   6.858   8.503   0.329  0.6443  0.1961 -0.2803
 1790TIP3    H232294   6.719   8.455   0.294 -0.0678  0.5027  2.0008
 1791TIP3   OH232295   6.607   4.307   6.673 -0.2259  0.4335 -0.2839
 1791TIP3    H132296   6.681   4.271   6.721 -2.2082 -0.4367  2.3714
 1791TIP3    H232297   6.614   4.402   6.685  0.3270  0.3488  0.0864
 1792TIP3   OH232298   1.075   1.686   5.153  0.5499  0.6518 -0.4674
 1792TIP3    H132299   1.081   1.591   5.166 -1.4633  0.7731  2.2477
 1792TIP3    H232300   1.005   1.697   5.090 -0.9383  0.3123  1.0587
 1793TIP3   OH232301   1.546   7.553   1.103 -0.4332 -0.0471 -0.3370
 1793TIP3    H132302   1.454   7.571   1.121 -0.3448  0.0836 -0.0137
 1793TIP3    H232303   1.590   7.637   1.114 -0.5449  0.3364 -2.3949
 1794TIP3   OH232304   1.773   8.296   1.257 -0.3546  0.1767 -0.6107
 1794TIP3    H132305   1.764   8.313   1.351  2.1336 -1.9545  0.1292
 1794TIP3    H232306   1.832   8.364   1.225  0.4871 -0.3034 -0.1221
 1795TIP3   OH232307   6.352   6.666   4.954  0.3269 -0.1430 -0.2852
 1795TIP3    H132308   6.320   6.733   4.894 -0.2121 -1.4619 -1.5343
 1795TIP3    H232309   6.273   6.628   4.992  0.3216 -2.4121 -2.2705
 1796TIP3   OH232310   3.672   1.134   6.382 -0.4369 -0.3216 -0.1883
 1796TIP3    H132311   3.641   1.129   6.472  0.0247 -0.7230 -0.0455
 1796TIP3    H232312   3.708   1.047   6.364 -2.6736 -1.0712 -1.5596
 1797TIP3   OH232313   3.164   2.268   6.534  0.6851  0.7970 -0.0719
 1797TIP3    H132314   3.132   2.200   6.475  1.3513 -0.1432  0.6209
 1797TIP3    H232315   3.091   2.285   6.593  0.1892  1.3795 -0.8434
 1798TIP3   OH232316   6.186   6.104   6.653  0.2347 -0.4261 -0.0881
 1798TIP3    H132317   6.158   6.195   6.641  2.1984  0.6047  2.4060
 1798TIP3    H232318   6.249   6.089   6.583  1.0640  0.6887  0.3997
 1799TIP3   OH232319   1.032   5.854   0.469  0.1217 -0.1633 -0.2163
 1799TIP3    H132320   1.052   5.924   0.531 -0.5017  0.5985 -0.8469
 1799TIP3    H232321   0.961   5.805   0.511  0.0272  0.0565 -0.1141
 1800TIP3   OH232322   5.174   6.532   0.004  0.2985  0.2141  0.5086
 1800TIP3    H132323   5.212   6.558   0.088  0.3890  0.5302  0.3716
 1800TIP3    H232324   5.108   6.599   7.056 -0.4598 -0.4260  0.8298
 1801TIP3   OH232325   7.618   0.419   6.797 -0.6209 -0.9450 -0.1447
 1801TIP3    H132326   7.543   0.475   6.819 -0.6010 -0.9778  0.0114
 1801TIP3    H232327   7.695   0.472   6.819 -0.5999 -0.9335 -0.2481
 1802TIP3   OH232328   4.772   2.034   0.022 -0.2897 -0.1055  0.0618
 1802TIP3    H132329   4.745   2.052   0.112  0.1645 -1.0849  0.4050
 1802TIP3    H232330   4.854   1.986   0.030  0.3870  0.8542 -0.9134
 1803TIP3   OH232331   4.003   4.986   6.364  0.2664 -0.0606 -0.1485
 1803TIP3    H132332   4.090   5.004   6.400  0.4966 -0.8402 -0.2899
 1803TIP3    H232333   4.020   4.950   6.277 -0.1567 -0.9776  0.1324
 1804TIP3   OH232334   7.894   6.246   0.270  0.1103 -0.8166  0.2224
 1804TIP3    H132335   7.976   6.202   0.247 -0.1027 -0.5215 -1.1834
 1804TIP3    H232336   7.835   6.175   0.293  0.1137 -1.2109 -0.9170
 1805TIP3   OH232337   5.212   3.776   6.912  0.2271  0.1279  0.4879
 1805TIP3    H132338   5.126   3.804   6.942 -1.3546 -0.9794 -2.5476
 1805TIP3    H232339   5.253   3.856   6.878  1.0164  0.8988  3.0555
 1806TIP3   OH232340   1.229   4.606   5.762  0.2226  0.4921  0.7387
 1806TIP3    H132341   1.146   4.649   5.779  0.1181  1.4785 -1.8057
 1806TIP3    H232342   1.212   4.513   5.776 -1.3019  0.6851  0.3038
 1807TIP3   OH232343   1.254   0.838   6.601  0.0745 -0.0970 -0.2544
 1807TIP3    H132344   1.346   0.847   6.575  0.2332 -1.0922 -0.0579
 1807TIP3    H232345   1.243   0.903   6.671 -0.0573  1.8104 -1.9489
 1808TIP3   OH232346   2.113   3.958   6.975  0.2450 -0.1887 -0.0280
 1808TIP3    H132347   2.187   3.915   6.932  2.6290  2.7071  0.8146
 1808TIP3    H232348   2.134   3.954   7.068 -0.1958  1.3724  0.1729
 1809TIP3   OH232349   1.266   5.091   0.496 -0.5431  0.1018 -0.1344
 1809TIP3    H132350   1.298   5.001   0.505  1.2303  0.7921  1.0379
 1809TIP3    H232351   1.191   5.096   0.555  0.1838 -0.2544  0.8341
 1810TIP3   OH232352   2.808   4.400   1.327  0.6584 -0.0639  0.0706
 1810TIP3    H132353   2.724   4.363   1.301  1.4256 -0.7967 -1.4804
 1810TIP3    H232354   2.816   4.377   1.420 -0.3036 -1.0304 -0.0647
 1811TIP3   OH232355   2.085   8.332   0.602  1.0394  0.7036 -0.4204
 1811TIP3    H132356   2.035   8.256   0.573 -2.2184  2.8172 -0.8987
 1811TIP3    H232357   2.147   8.349   0.531 -0.1178  0.0925 -1.6113
 1812TIP3   OH232358   5.132   2.549   1.450 -0.1358 -0.1066  0.4728
 1812TIP3    H132359   5.100   2.583   1.533  0.3028  0.4385  0.4199
 1812TIP3    H232360   5.226   2.561   1.453  0.1172 -1.7819  0.6572
 1813TIP3   OH232361   3.784   6.531   1.159 -0.1933  0.5114 -0.2533
 1813TIP3    H132362   3.704   6.573   1.129 -0.8224 -0.7568 -0.4564
 1813TIP3    H232363   3.759   6.488   1.241  0.7836  1.6458  0.6645
 1814TIP3   OH232364   7.632   5.345   0.335 -0.2692 -0.2727 -0.3981
 1814TIP3    H132365   7.670   5.360   0.422 -0.1752 -0.4652 -0.4066
 1814TIP3    H232366   7.671   5.263   0.305  3.8102  2.2397 -2.8920
 1815TIP3   OH232367   0.032   2.917   6.658 -0.4005  0.2841  0.4718
 1815TIP3    H132368   0.027   2.823   6.677  0.7457 -0.0073 -0.5514
 1815TIP3    H232369   0.125   2.937   6.659 -0.6190  1.3571  0.4094
 1816TIP3   OH232370   8.067   8.238   6.698  0.3944  0.1644 -0.9904
 1816TIP3    H132371   8.161   8.244   6.682  1.0021 -1.5599  1.3926
 1816TIP3    H232372   8.048   8.145   6.691 -0.4001  0.0256  1.8267
 1817TIP3   OH232373   5.377   0.498   6.659 -0.4494 -0.2464  0.5516
 1817TIP3    H132374   5.306   0.560   6.640  0.4307  0.7734  0.5228
 1817TIP3    H232375   5.419   0.483   6.575 -1.0346 -1.3751  0.4493
 1818TIP3   OH232376   0.202   1.143   6.277 -0.3165  0.8974  0.1611
 1818TIP3    H132377   0.169   1.232   6.264 -0.8984  0.6138 -0.3327
 1818TIP3    H232378   0.265   1.131   6.205  0.3524  1.1786  0.6813
 1819TIP3   OH232379   5.421   7.005   2.044 -0.3118 -0.0710  0.6491
 1819TIP3    H132380   5.434   7.071   2.112 -1.3178  0.0174  0.7724
 1819TIP3    H232381   5.433   6.921   2.089 -0.5218 -0.0036  0.8316
 1820TIP3   OH232382   0.152   1.686   6.223 -0.6536  0.5269 -0.0203
 1820TIP3    H132383   0.085   1.748   6.193 -0.0384  1.1800 -0.0938
 1820TIP3    H232384   0.202   1.735   6.288 -0.5057 -0.0918  0.3369
 1821TIP3   OH232385   5.237   6.735   5.194 -0.1230 -0.6314  0.0819
 1821TIP3    H132386   5.235   6.821   5.153  0.7008 -1.1837 -1.1936
 1821TIP3    H232387   5.304   6.687   5.146 -1.5156 -2.4507 -0.1552
 1822TIP3   OH232388   7.848   8.533   6.614  0.2906  0.4232 -0.2725
 1822TIP3    H132389   7.799   0.060   6.669  0.8301  0.8925 -0.3230
 1822TIP3    H232390   7.800   8.532   6.531 -0.0936  0.2766 -0.0546
 1823TIP3   OH232391   6.036   2.817   1.734  0.5483 -0.0298 -0.1207
 1823TIP3    H132392   6.080   2.884   1.787 -1.8379 -0.5748  2.8258
 1823TIP3    H232393   5.943   2.829   1.752 -0.2095 -2.0160 -2.1852
 1824TIP3   OH232394   4.448   0.268   0.787 -0.1707  0.4652  0.0581
 1824TIP3    H132395   4.407   0.181   0.793 -0.1038  0.5129  1.9530
 1824TIP3    H232396   4.448   0.300   0.877  1.9055  1.4600 -0.2393
 1825TIP3   OH232397   3.341   7.833   5.653 -0.5600 -0.6578  0.1547
 1825TIP3    H132398   3.259   7.850   5.608 -0.9094 -0.8790  0.6967
 1825TIP3    H232399   3.399   7.904   5.625 -0.2876 -1.5721 -1.7603
 1826TIP3   OH232400   5.001   3.993   5.643 -0.0588  0.2978  0.1404
 1826TIP3    H132401   5.044   4.007   5.558 -2.0149  2.7908 -0.5679
 1826TIP3    H232402   5.050   4.050   5.703  0.6182 -0.6038  0.4625
 1827TIP3   OH232403   3.618   1.328   6.199 -0.1378 -0.0429 -0.0320
 1827TIP3    H132404   3.627   1.254   6.259  3.8173  0.9140  0.8689
 1827TIP3    H232405   3.570   1.293   6.124 -1.1443 -2.5966  1.6977
 1828TIP3   OH232406   1.294   8.398   6.992  0.2955 -0.0322  0.2295
 1828TIP3    H132407   1.211   8.369   7.028  0.9862 -1.6713  0.5823
 1828TIP3    H232408   1.311   8.340   6.918  0.6190  0.9879 -0.5264
 1829TIP3   OH232409   5.148   6.294   6.934 -0.3002 -0.1970  0.0498
 1829TIP3    H132410   5.191   6.366   6.980 -0.2342 -0.5881  0.6166
 1829TIP3    H232411   5.137   6.326   6.845  1.9958 -0.4197 -0.3838
 1830TIP3   OH232412   4.841   6.725   0.721 -0.1058 -0.3154 -0.2070
 1830TIP3    H132413   4.784   6.651   0.699 -1.0560 -0.1531  1.4880
 1830TIP3    H232414   4.925   6.686   0.742  0.3102 -0.6106 -2.2408
 1831TIP3   OH232415   0.440   7.243   0.989  0.7826 -0.4200  0.2633
 1831TIP3    H132416   0.437   7.247   1.085  2.2135  1.0471  0.3069
 1831TIP3    H232417   0.515   7.186   0.970  0.8054 -0.3122  0.0308
 1832TIP3   OH232418   7.037   6.588   6.226 -0.3812  0.1398  0.6953
 1832TIP3    H132419   7.107   6.653   6.224  0.3730 -0.6838 -0.8482
 1832TIP3    H232420   6.959   6.637   6.197 -0.2095  0.7618  1.2496
 1833TIP3   OH232421   6.400   0.632   6.233  0.0245  0.2992  0.7161
 1833TIP3    H132422   6.332   0.673   6.286 -0.3710 -0.4456  0.7928
 1833TIP3    H232423   6.393   0.539   6.252 -1.8211 -0.3816 -2.4786
 1834TIP3   OH232424   7.378   3.573   5.390 -0.4224  0.0609 -0.3390
 1834TIP3    H132425   7.464   3.589   5.428  0.0505 -2.3509 -0.2639
 1834TIP3    H232426   7.354   3.485   5.420 -2.8439  0.5760 -0.5212
 1835TIP3   OH232427   0.574   7.923   5.045  0.1609  0.1131 -0.1786
 1835TIP3    H132428   0.559   7.927   5.140 -2.5530  0.8287 -0.5681
 1835TIP3    H232429   0.635   7.995   5.028  0.8894 -0.1857  1.0324
 1836TIP3   OH232430   0.556   6.743   7.034  0.1547 -0.1251  0.1402
 1836TIP3    H132431   0.540   6.830   0.001  1.6402 -0.0384  0.6085
 1836TIP3    H232432   0.468   6.706   7.023 -0.4731  1.1653  0.5593
 1837TIP3   OH232433   4.237   3.180   0.727  0.2481 -0.1054  0.1735
 1837TIP3    H132434   4.229   3.255   0.785  1.3495 -0.7564  1.2162
 1837TIP3    H232435   4.296   3.120   0.773  1.3469 -0.5583 -1.7086
 1838TIP3   OH232436   1.678   0.261   5.767  0.7701  0.0139  0.3163
 1838TIP3    H132437   1.693   0.317   5.691  0.9715  1.4536  1.3789
 1838TIP3    H232438   1.753   0.202   5.768  0.3357 -0.6120 -1.0697
 1839TIP3   OH232439   8.089   6.087   0.187 -0.7536  0.1409 -0.0809
 1839TIP3    H132440   8.095   5.992   0.187  0.2898  0.1923  0.5783
 1839TIP3    H232441   8.129   6.114   0.105 -0.7050  0.0345 -0.0922
 1840TIP3   OH232442   7.964   7.973   6.766  0.0863 -0.1220  0.0841
 1840TIP3    H132443   7.972   7.971   6.671 -0.6396  0.0259  0.0129
 1840TIP3    H232444   7.869   7.980   6.782  0.2588  0.7425  0.7997
 1841TIP3   OH232445   1.185   3.960   1.029  0.2045 -0.4524 -0.0390
 1841TIP3    H132446   1.119   4.020   1.065 -1.0935 -0.1604 -2.7014
 1841TIP3    H232447   1.135   3.882   1.003  0.9360 -0.3738 -1.7867
 1842TIP3   OH232448   5.039   6.976   6.006  0.6509 -0.0619 -0.1327
 1842TIP3    H132449   4.972   7.034   5.970 -0.5237 -1.5646 -0.4753
 1842TIP3    H232450   5.066   7.018   6.087  2.0739  2.4967 -1.7979
 1843TIP3   OH232451   0.856   6.340   5.365 -0.1669  0.6418 -0.2430
 1843TIP3    H132452   0.853   6.264   5.423  0.9312  1.0558  0.3893
 1843TIP3    H232453   0.765   6.370   5.360 -0.7677 -1.1677 -1.1605
 1844TIP3   OH232454   6.471   5.028   0.132  0.1588 -0.2310  0.4531
 1844TIP3    H132455   6.379   5.018   0.106  0.4653 -1.7148 -0.1664
 1844TIP3    H232456   6.468   5.084   0.209 -1.2071  0.2775  0.0606
 1845TIP3   OH232457   7.250   4.637   0.156  0.6191  0.2955  0.3175
 1845TIP3    H132458   7.243   4.613   0.249 -0.8014 -0.9143 -0.0562
 1845TIP3    H232459   7.306   4.715   0.155  0.5291  0.4294  2.2008
 1846TIP3   OH232460   2.986   2.971   6.104  0.6080 -0.4960  0.0337
 1846TIP3    H132461   3.034   2.890   6.090 -0.2171 -0.8770 -0.7024
 1846TIP3    H232462   3.014   3.002   6.190  0.6921 -1.7285  0.4639
 1847TIP3   OH232463   6.824   7.576   6.857 -0.2734  0.5717 -0.0325
 1847TIP3    H132464   6.838   7.662   6.897 -1.3217  0.3518  0.8548
 1847TIP3    H232465   6.735   7.581   6.822  0.2797  0.4230 -1.5102
 1848TIP3   OH232466   1.920   8.330   0.834  0.0364 -0.2994  0.1859
 1848TIP3    H132467   1.835   8.297   0.808 -0.6016  0.7495  0.8770
 1848TIP3    H232468   1.964   8.351   0.751 -0.5260 -0.4646 -0.1580
 1849TIP3   OH232469   5.517   7.103   5.541  0.0054 -0.3166 -0.3319
 1849TIP3    H132470   5.589   7.090   5.479 -0.6678  0.7613 -1.4140
 1849TIP3    H232471   5.457   7.162   5.494 -1.6736 -1.3421  0.4503
 1850TIP3   OH232472   3.042   8.165   0.809 -0.0477 -0.5051 -0.1063
 1850TIP3    H132473   2.948   8.169   0.827  0.0679  0.2800  0.3737
 1850TIP3    H232474   3.053   8.214   0.727  0.0274  0.0348  0.2205
 1851TIP3   OH232475   1.011   6.570   1.062  0.1169  0.7351 -0.0452
 1851TIP3    H132476   0.921   6.539   1.072  0.2841 -0.5714 -2.0881
 1851TIP3    H232477   1.063   6.506   1.111  0.0429  0.7678  0.0769
 1852TIP3   OH232478   8.062   2.829   1.605  0.3621 -0.0480 -0.4504
 1852TIP3    H132479   7.972   2.859   1.589  0.5196 -0.2358 -1.7606
 1852TIP3    H232480   8.081   2.859   1.694 -0.8095  0.4570 -0.3473
 1853TIP3   OH232481   3.102   0.693   6.081  0.5298  0.2242  0.4372
 1853TIP3    H132482   3.041   0.756   6.044  0.3721 -0.1503  0.0592
 1853TIP3    H232483   3.142   0.739   6.155 -0.6938  0.2487  1.1166
 1854TIP3   OH232484   8.237   7.486   0.712 -0.5091 -0.1569 -0.1000
 1854TIP3    H132485   8.150   7.461   0.744 -0.2083  0.3853  1.1977
 1854TIP3    H232486   8.221   7.559   0.652 -0.8077  1.7430  2.1376
 1855TIP3   OH232487   3.187   3.018   5.744 -0.2479 -0.2416 -0.2702
 1855TIP3    H132488   3.197   2.969   5.662 -0.1340  0.5456 -0.7416
 1855TIP3    H232489   3.263   2.994   5.796  0.2124  0.0141 -0.8112
 1856TIP3   OH232490   3.413   4.361   5.464  0.5790  0.0493  0.8447
 1856TIP3    H132491   3.499   4.338   5.498  1.2471 -0.9009 -1.2952
 1856TIP3    H232492   3.400   4.302   5.390 -1.7745  0.4130  0.9006
 1857TIP3   OH232493   6.557   0.999   1.204  0.0536 -0.1126  0.2986
 1857TIP3    H132494   6.583   0.920   1.157 -0.5729 -0.0874 -0.1137
 1857TIP3    H232495   6.570   1.070   1.140 -0.9485 -0.0966  0.0974
 1858TIP3   OH232496   0.840   2.804   5.018  0.2836 -0.1736 -0.1005
 1858TIP3    H132497   0.825   2.872   5.084  1.8623 -0.3562  0.4787
 1858TIP3    H232498   0.909   2.841   4.962  1.1591 -1.2754  0.2231
 1859TIP3   OH232499   6.570   5.851   1.249 -0.7087 -0.3647 -0.0312
 1859TIP3    H132500   6.597   5.843   1.158  0.7364 -1.6496  0.4631
 1859TIP3    H232501   6.530   5.766   1.269  1.6794 -1.2808  1.3083
 1860TIP3   OH232502   7.943   7.258   0.414 -0.2384  0.2404 -0.0223
 1860TIP3    H132503   7.922   7.244   0.321  1.5559 -0.6703 -0.3486
 1860TIP3    H232504   7.966   7.351   0.419 -0.7046  0.3793 -0.4134
 1861TIP3   OH232505   7.961   4.563   1.308 -0.0035  0.1434  0.0278
 1861TIP3    H132506   7.977   4.610   1.226  0.5549 -0.1468 -0.0385
 1861TIP3    H232507   8.044   4.571   1.356 -0.3352  0.3315  0.5777
 1862TIP3   OH232508   0.283   1.060   0.947  0.0300  0.2273  0.2217
 1862TIP3    H132509   0.253   0.990   0.890  2.5819 -1.7966  1.1753
 1862TIP3    H232510   0.377   1.067   0.930  0.1510  2.3328  1.3314
 1863TIP3   OH232511   7.585   6.948   1.584 -0.2208 -0.2120 -0.0146
 1863TIP3    H132512   7.504   6.919   1.626 -2.2106  1.7467 -2.1956
 1863TIP3    H232513   7.622   6.868   1.545 -0.0201 -1.4649  2.5151
 1864TIP3   OH232514   8.306   0.731   1.599  0.0072  0.0911 -0.4034
 1864TIP3    H132515   8.299   0.685   1.682  0.3728 -1.7306 -1.3343
 1864TIP3    H232516   8.399   0.752   1.591 -0.1467  0.9561 -0.0157
 1865TIP3   OH232517   6.265   6.947   5.571  0.3343  0.5471 -0.1179
 1865TIP3    H132518   6.245   7.041   5.570  1.5119  0.8243  0.6465
 1865TIP3    H232519   6.356   6.941   5.545 -0.1556 -0.5439 -1.7135
 1866TIP3   OH232520   5.670   1.940   1.081  0.0931 -0.3433 -0.0070
 1866TIP3    H132521   5.649   2.023   1.123  1.3695 -0.0993  0.2043
 1866TIP3    H232522   5.609   1.934   1.007 -0.1210  0.7025  0.0678
 1867TIP3   OH232523   4.272   7.274   4.960 -0.0420 -0.4105 -0.5079
 1867TIP3    H132524   4.250   7.211   5.029 -0.2789  0.2120  0.0004
 1867TIP3    H232525   4.219   7.247   4.885 -1.6261  0.3106  0.3031
 1868TIP3   OH232526   8.088   2.511   0.163 -0.0365  0.3303  0.1591
 1868TIP3    H132527   8.050   2.532   0.248 -2.2714 -0.6265 -0.5420
 1868TIP3    H232528   8.033   2.441   0.128  0.9547  0.5257 -1.9841
 1869TIP3   OH232529   1.455   6.599   6.779 -0.2364  0.1922 -0.1069
 1869TIP3    H132530   1.536   6.639   6.747  0.5907  1.0189  2.7238
 1869TIP3    H232531   1.401   6.673   6.805 -1.1773 -0.4125 -0.3135
 1870TIP3   OH232532   8.265   3.601   1.227 -0.9309  0.2137 -0.1446
 1870TIP3    H132533   8.244   3.535   1.293 -0.2919  0.5962  0.4495
 1870TIP3    H232534   8.359   3.616   1.237 -1.3809  2.6184  1.0542
 1871TIP3   OH232535   6.446   3.397   2.083 -0.0683 -0.0425 -0.0771
 1871TIP3    H132536   6.502   3.326   2.113  1.1736 -0.4439 -3.0514
 1871TIP3    H232537   6.375   3.352   2.036  0.0494  0.6147 -0.8987
 1872TIP3   OH232538   0.012   5.949   5.964  0.6178  0.5337 -0.0486
 1872TIP3    H132539   0.090   5.934   5.911  0.2779  0.9353 -0.6742
 1872TIP3    H232540   0.008   5.874   6.023  0.0742 -0.7788 -1.7067
 1873TIP3   OH232541   2.361   3.211   0.572  0.0764  0.0619  0.3969
 1873TIP3    H132542   2.298   3.218   0.500 -0.4372  2.0668  0.9940
 1873TIP3    H232543   2.308   3.191   0.649  0.4519 -0.4795  0.5284
 1874TIP3   OH232544   0.289   4.805   6.150  0.5103  0.5977 -0.0437
 1874TIP3    H132545   0.241   4.878   6.109  0.2276  0.9706  0.9281
 1874TIP3    H232546   0.370   4.844   6.181  0.5602  0.3972  0.0784
 1875TIP3   OH232547   0.668   5.584   5.632  0.4249 -0.4091 -0.3496
 1875TIP3    H132548   0.579   5.549   5.635 -0.3339  1.4319  0.5909
 1875TIP3    H232549   0.705   5.564   5.718  1.4710 -2.3586 -1.1873
 1876TIP3   OH232550   6.043   1.887   5.583 -0.2350  0.6014  0.0305
 1876TIP3    H132551   6.028   1.923   5.496 -1.0857  0.5062  0.1297
 1876TIP3    H232552   5.956   1.859   5.613  0.0929  0.3657  0.7886
 1877TIP3   OH232553   4.539   3.041   6.845 -0.2050 -0.1328 -0.1586
 1877TIP3    H132554   4.457   3.075   6.807  0.2779  2.6200  1.0389
 1877TIP3    H232555   4.511   2.988   6.919 -0.9151 -0.2340 -0.4871
 1878TIP3   OH232556   1.190   4.321   0.002  0.1026 -0.6793 -0.0460
 1878TIP3    H132557   1.229   4.332   6.986  0.0788  0.6052  0.0922
 1878TIP3    H232558   1.263   4.333   0.063 -0.0668 -0.6339  0.1483
 1879TIP3   OH232559   2.049   8.338   5.978  0.0896  0.4602 -0.0046
 1879TIP3    H132560   2.139   8.362   5.998 -0.0732  1.7569 -0.7703
 1879TIP3    H232561   2.001   8.358   6.058  0.4812 -0.4196  0.4774
 1880TIP3   OH232562   8.314   5.509   0.619 -0.1971 -0.9699  0.2911
 1880TIP3    H132563   8.296   5.532   0.528 -2.0004 -1.0849  0.5922
 1880TIP3    H232564   8.361   5.425   0.613  1.3817 -0.0803 -0.5612
 1881TIP3   OH232565   8.198   0.842   5.124  0.1787  0.0543 -0.1612
 1881TIP3    H132566   8.205   0.893   5.043  1.8900  1.2936  0.7195
 1881TIP3    H232567   8.125   0.883   5.171  1.0500  1.2379  0.1983
 1882TIP3   OH232568   5.003   0.114   5.011  0.7756 -0.0019  0.3637
 1882TIP3    H132569   4.922   0.141   5.055  0.9509  0.2467  0.5381
 1882TIP3    H232570   5.045   0.197   4.986  1.3492 -0.1036  0.9519
 1883TIP3   OH232571   0.953   2.298   6.112  0.4025 -0.5346 -0.1573
 1883TIP3    H132572   1.004   2.255   6.180  3.8554  2.4545 -0.5579
 1883TIP3    H232573   0.935   2.386   6.147 -0.4485  0.0459 -1.9173
 1884TIP3   OH232574   4.900   4.406   1.136  1.0563 -0.7340  0.0944
 1884TIP3    H132575   4.830   4.398   1.201  1.8363 -1.7238  0.8551
 1884TIP3    H232576   4.855   4.420   1.053  0.0375  0.9494  0.8700
 1885TIP3   OH232577   2.590   6.160   0.828  0.0383  0.1579 -0.0231
 1885TIP3    H132578   2.601   6.230   0.893 -0.9635  1.5999 -1.3243
 1885TIP3    H232579   2.609   6.203   0.745  0.1806 -1.3526 -0.7961
 1886TIP3   OH232580   3.300   3.423   0.116 -0.2442 -0.1772 -0.0581
 1886TIP3    H132581   3.270   3.513   0.108 -0.1130 -0.1656 -0.4537
 1886TIP3    H232582   3.299   3.405   0.210 -2.1648 -0.3996 -0.0773
 1887TIP3   OH232583   1.408   5.586   0.184  0.2679  0.0074  0.2423
 1887TIP3    H132584   1.315   5.571   0.169  0.3210 -0.3321  0.2408
 1887TIP3    H232585   1.425   5.673   0.148 -0.3126  0.6158  1.3651
 1888TIP3   OH232586   2.901   2.925   6.599 -0.2372  0.3014 -0.3979
 1888TIP3    H132587   2.806   2.916   6.593 -0.4038  1.9378 -0.6883
 1888TIP3    H232588   2.915   2.997   6.661  0.9145 -1.4481  1.5102
 1889TIP3   OH232589   1.026   3.084   7.057  0.6098  0.2052 -0.1786
 1889TIP3    H132590   1.091   3.066   6.990 -1.9756 -1.3216 -2.4651
 1889TIP3    H232591   1.032   3.179   0.002  3.1067  0.1450 -0.4936
 1890TIP3   OH232592   3.698   4.582   0.647 -0.3716 -0.8428 -0.1275
 1890TIP3    H132593   3.676   4.631   0.726 -0.9928 -1.7201  0.2621
 1890TIP3    H232594   3.767   4.633   0.606  1.5938 -1.4926  2.1440
 1891TIP3   OH232595   1.721   2.275   6.673 -0.5488  0.1209  0.8438
 1891TIP3    H132596   1.796   2.304   6.725  0.6116 -0.6047 -0.3739
 1891TIP3    H232597   1.690   2.355   6.630  0.6440  0.1490 -0.0149
 1892TIP3   OH232598   1.302   6.240   5.316 -0.1099  0.0553 -0.2205
 1892TIP3    H132599   1.257   6.206   5.238 -0.9033 -0.9631  0.6546
 1892TIP3    H232600   1.346   6.164   5.354 -1.1623  0.1487  1.2769
 1893TIP3   OH232601   2.960   6.751   0.434 -0.1709 -0.7139  0.0481
 1893TIP3    H132602   2.950   6.742   0.529 -0.4085 -3.0636 -0.1385
 1893TIP3    H232603   3.028   6.687   0.412 -1.3333 -1.4650 -1.5447
 1894TIP3   OH232604   3.130   1.987   1.111  0.4464 -0.6855  0.5722
 1894TIP3    H132605   3.099   2.075   1.132  2.2004  0.0755  0.1976
 1894TIP3    H232606   3.131   1.941   1.195  0.0435 -0.1767  0.8635
 1895TIP3   OH232607   2.307   2.661   6.793 -0.0557 -0.1104 -0.2642
 1895TIP3    H132608   2.374   2.592   6.797 -0.4895 -0.5443 -0.3580
 1895TIP3    H232609   2.348   2.737   6.834  0.0274 -0.7552  0.8968
 1896TIP3   OH232610   0.779   0.774   5.486 -0.3806  0.4458 -0.1713
 1896TIP3    H132611   0.782   0.778   5.582 -2.0293 -0.3324 -0.0550
 1896TIP3    H232612   0.828   0.851   5.458 -0.6064  1.1801  1.3156
 1897TIP3   OH232613   7.266   0.849   6.509  0.3216 -0.1524 -0.7510
 1897TIP3    H132614   7.268   0.785   6.438 -1.9426  1.0344 -1.9846
 1897TIP3    H232615   7.205   0.813   6.573  1.0932 -0.4344 -0.1492
 1898TIP3   OH232616   7.196   7.412   1.244 -0.4374  0.4207  0.1499
 1898TIP3    H132617   7.286   7.431   1.218 -0.3408  1.1090  0.9436
 1898TIP3    H232618   7.205   7.351   1.317 -0.5502  1.4352  1.0362
 1899TIP3   OH232619   2.965   1.223   6.949  0.7958 -0.5291  0.1198
 1899TIP3    H132620   3.006   1.145   6.985  2.0279  0.8611  1.8759
 1899TIP3    H232621   3.016   1.296   6.984 -1.0876  1.1405 -0.4094
 1900TIP3   OH232622   5.379   4.493   5.485 -0.3160  0.4476 -0.1894
 1900TIP3    H132623   5.290   4.529   5.480 -0.2791  0.5949  0.1893
 1900TIP3    H232624   5.433   4.555   5.436 -0.2222  1.0209  0.6159
 1901TIP3   OH232625   3.436   6.180   5.655 -0.7906  0.6737  0.2442
 1901TIP3    H132626   3.365   6.203   5.594  0.9758 -2.0307 -3.1830
 1901TIP3    H232627   3.482   6.263   5.669 -3.0064  1.9568  0.3921
 1902TIP3   OH232628   4.469   5.460   6.118 -0.2474  0.4653 -0.3455
 1902TIP3    H132629   4.507   5.547   6.133 -0.7191  0.5418  0.4680
 1902TIP3    H232630   4.504   5.432   6.034  0.1000  1.3450 -0.4965
 1903TIP3   OH232631   8.023   3.419   6.985  0.4605 -0.1778  0.5251
 1903TIP3    H132632   8.075   3.470   7.047  0.2399 -0.6893  1.1562
 1903TIP3    H232633   8.086   3.383   6.923  0.4593  2.2419 -1.0032
 1904TIP3   OH232634   6.236   1.208   1.313  0.1112 -0.5237  0.3850
 1904TIP3    H132635   6.273   1.124   1.340  1.9812  0.4818  1.2120
 1904TIP3    H232636   6.262   1.217   1.221 -2.3589 -1.9437 -0.5406
 1905TIP3   OH232637   0.313   3.212   5.641 -0.4474 -0.0539  0.4880
 1905TIP3    H132638   0.220   3.217   5.663 -0.2659 -0.6385  1.4579
 1905TIP3    H232639   0.316   3.225   5.546 -1.6010 -0.9059  0.3154
 1906TIP3   OH232640   8.315   4.358   1.337 -0.0053 -0.0179  0.5187
 1906TIP3    H132641   8.344   4.449   1.332  0.6147 -0.2572 -0.7634
 1906TIP3    H232642   8.313   4.339   1.431  0.0108  1.2631  0.8017
 1907TIP3   OH232643   3.805   0.103   0.045 -0.2518  0.0561 -0.6666
 1907TIP3    H132644   3.884   0.157   0.050  0.8515 -1.5152 -0.1804
 1907TIP3    H232645   3.835   0.015   0.068 -2.1271 -0.6266 -0.6618
 1908TIP3   OH232646   0.268   6.712   0.479  0.4586 -1.0940 -0.0932
 1908TIP3    H132647   0.185   6.761   0.481  0.1194 -1.5354 -1.9218
 1908TIP3    H232648   0.335   6.780   0.474  0.3510 -0.6751  2.5433
 1909TIP3   OH232649   1.010   6.195   1.389 -0.2718  0.4970 -0.2442
 1909TIP3    H132650   0.957   6.271   1.410 -1.0346 -0.2807  0.7593
 1909TIP3    H232651   1.099   6.229   1.380 -0.5546  1.4622  0.4719
 1910TIP3   OH232652   6.248   5.581   6.041 -0.0166  0.3974 -0.1525
 1910TIP3    H132653   6.259   5.668   6.080 -1.0666  0.0927  0.8621
 1910TIP3    H232654   6.314   5.527   6.084 -1.4748 -0.0490  1.6064
 1911TIP3   OH232655   2.338   6.410   1.265  0.3435 -0.1354  0.0684
 1911TIP3    H132656   2.248   6.440   1.279  0.1116 -0.9719  0.4608
 1911TIP3    H232657   2.391   6.469   1.318  0.2999  1.8245 -1.9080
 1912TIP3   OH232658   7.917   0.269   5.533  0.4804 -0.0856 -0.1285
 1912TIP3    H132659   7.980   0.197   5.534  0.7971  0.1474 -1.5136
 1912TIP3    H232660   7.910   0.294   5.441 -1.4509  0.0652  0.0009
 1913TIP3   OH232661   1.900   2.094   0.463 -0.0990 -0.0498 -0.6682
 1913TIP3    H132662   1.926   2.178   0.501 -0.5411  0.2649 -1.0535
 1913TIP3    H232663   1.805   2.098   0.458 -0.3972 -1.6766  1.8693
 1914TIP3   OH232664   4.855   3.391   6.950  0.2110 -0.3488 -0.5800
 1914TIP3    H132665   4.855   3.296   6.936  0.9880 -1.0512  3.1510
 1914TIP3    H232666   4.945   3.412   6.975  0.3405  1.6683 -2.4407
 1915TIP3   OH232667   3.393   0.946   1.614 -0.2640  0.4564 -0.0598
 1915TIP3    H132668   3.314   0.938   1.561 -0.0830  1.2257 -0.4622
 1915TIP3    H232669   3.372   0.902   1.696  0.2065 -2.8046 -1.5270
 1916TIP3   OH232670   8.291   3.912   1.425  0.0159  0.1307 -0.1631
 1916TIP3    H132671   8.272   3.826   1.463  0.7730 -0.0607 -0.2074
 1916TIP3    H232672   8.256   3.974   1.490 -0.2458 -0.2063  0.0226
 1917TIP3   OH232673   7.451   1.573   6.561 -0.2674  0.0822  0.4968
 1917TIP3    H132674   7.468   1.590   6.653  0.5086 -0.0232  0.3741
 1917TIP3    H232675   7.468   1.657   6.517 -0.1343 -0.0052  0.3813
 1918TIP3   OH232676   7.411   1.121   6.918 -0.5586 -0.1360 -0.2001
 1918TIP3    H132677   7.336   1.125   6.977 -1.1426  2.0446 -0.9966
 1918TIP3    H232678   7.426   1.212   6.891  1.4854 -0.6863 -1.1854
 1919TIP3   OH232679   6.297   1.572   0.132  0.4320 -0.7639  0.3618
 1919TIP3    H132680   6.210   1.609   0.138 -0.3057 -2.4376  0.5419
 1919TIP3    H232681   6.334   1.609   0.052 -0.4070  0.0197  0.3308
 1920TIP3   OH232682   2.682   0.864   0.025  0.0820  0.0923 -0.3545
 1920TIP3    H132683   2.682   0.831   7.007  1.5706  0.8239 -0.6561
 1920TIP3    H232684   2.699   0.958   0.015  0.6882  0.1093  0.7117
 1921TIP3   OH232685   0.420   4.266   1.114 -0.3589 -0.0585  0.1014
 1921TIP3    H132686   0.343   4.214   1.137 -1.7007  1.6138 -0.3601
 1921TIP3    H232687   0.394   4.313   1.035  0.8986  1.0439  0.3050
 1922TIP3   OH232688   8.254   6.220   5.699  0.5012  0.4473 -0.0277
 1922TIP3    H132689   8.243   6.128   5.675 -0.0782  0.4340  0.2718
 1922TIP3    H232690   8.339   6.223   5.744 -0.0810 -0.2061  1.1827
 1923TIP3   OH232691   3.063   8.112   6.879 -0.2451  0.3292 -0.2223
 1923TIP3    H132692   3.109   8.040   6.922 -0.6555  0.5554  0.6061
 1923TIP3    H232693   3.073   8.186   6.939 -3.0768 -0.0211  0.8156
 1924TIP3   OH232694   5.734   2.211   0.871  0.2723  0.1297 -0.1519
 1924TIP3    H132695   5.699   2.138   0.821  0.1283  0.9074 -1.2342
 1924TIP3    H232696   5.820   2.181   0.902 -0.1168 -0.7623  0.0936
 1925TIP3   OH232697   6.310   5.259   5.941 -0.1833 -0.2264 -0.0777
 1925TIP3    H132698   6.242   5.319   5.910  0.3351  1.2354  1.4527
 1925TIP3    H232699   6.336   5.295   6.026 -0.6587 -3.2788  1.4864
 1926TIP3   OH232700   3.630   4.993   0.250  0.3329  0.5545  0.0143
 1926TIP3    H132701   3.653   4.945   0.330  1.2192  2.6099  1.0732
 1926TIP3    H232702   3.656   4.934   0.178 -0.2481 -1.2396  1.1953
 1927TIP3   OH232703   0.508   0.735   5.727  0.0963  0.3481 -0.6212
 1927TIP3    H132704   0.524   0.800   5.796  1.7443 -1.5304  0.8679
 1927TIP3    H232705   0.454   0.782   5.662  0.5706  2.9396  0.7262
 1928TIP3   OH232706   1.849   2.016   6.452 -0.7640 -0.2014  0.1402
 1928TIP3    H132707   1.826   2.105   6.423 -0.9757 -0.5420 -0.7450
 1928TIP3    H232708   1.769   1.966   6.443 -0.3023 -0.8134 -0.6783
 1929TIP3   OH232709   7.989   7.429   6.931  0.1002  0.2877 -0.1302
 1929TIP3    H132710   7.928   7.448   7.002  0.0619  1.2963 -0.4202
 1929TIP3    H232711   8.025   7.514   6.907  0.2295 -0.0619 -1.2109
 1930TIP3   OH232712   2.438   7.088   6.672 -0.9131  0.3185 -0.2543
 1930TIP3    H132713   2.439   7.091   6.767 -1.7587 -1.1215 -0.1649
 1930TIP3    H232714   2.468   6.999   6.651  0.7251  1.0855 -1.3923
 1931TIP3   OH232715   3.662   2.540   6.952  0.6162  0.7125 -0.4352
 1931TIP3    H132716   3.610   2.506   7.025 -0.6673 -1.7355 -2.3555
 1931TIP3    H232717   3.728   2.473   6.937 -0.2349  0.2792 -2.5655
 1932TIP3   OH232718   2.821   5.629   0.434  0.3303 -0.4045 -0.1160
 1932TIP3    H132719   2.852   5.589   0.353 -1.2347  0.8396 -1.3757
 1932TIP3    H232720   2.739   5.584   0.453 -0.3064  0.6358 -0.3253
 1933TIP3   OH232721   3.622   8.316   6.418 -0.0671  0.0525 -0.3690
 1933TIP3    H132722   3.712   8.343   6.399  0.2067 -0.1150  0.6565
 1933TIP3    H232723   3.574   8.398   6.430  0.4961  0.1599  1.5095
 1934TIP3   OH232724   0.954   4.689   6.296 -0.2182  0.2843  0.8884
 1934TIP3    H132725   0.949   4.768   6.243 -0.2122  0.6756  1.4689
 1934TIP3    H232726   0.891   4.702   6.367 -1.8105 -1.1408 -0.1775
 1935TIP3   OH232727   4.639   7.144   0.866 -0.5101 -0.0013 -0.1825
 1935TIP3    H132728   4.699   7.097   0.807 -3.3363 -2.1130 -1.6060
 1935TIP3    H232729   4.581   7.192   0.807 -0.7812  1.2955  1.1149
 1936TIP3   OH232730   7.449   1.926   0.803 -0.8715 -0.0407  0.0582
 1936TIP3    H132731   7.463   1.849   0.747 -2.0719 -0.4972  0.3588
 1936TIP3    H232732   7.389   1.895   0.870 -1.3606  1.1673  0.1915
 1937TIP3   OH232733   5.947   7.250   6.547 -0.4637  0.2867 -0.1027
 1937TIP3    H132734   5.977   7.241   6.638 -0.4379 -0.7834 -0.2054
 1937TIP3    H232735   5.902   7.334   6.545 -1.7487 -0.3366  1.2732
 1938TIP3   OH232736   5.955   4.577   0.868  0.4747 -0.4439  0.0374
 1938TIP3    H132737   6.004   4.653   0.838  0.0792 -0.2780 -0.1957
 1938TIP3    H232738   5.963   4.514   0.796  2.0210 -1.2076  0.8051
 1939TIP3   OH232739   0.474   5.521   0.534  0.5170  0.0653  0.2446
 1939TIP3    H132740   0.489   5.533   0.440  0.8142 -1.2172  0.1107
 1939TIP3    H232741   0.473   5.610   0.570 -1.3020  0.6837 -1.2093
 1940TIP3   OH232742   3.476   8.000   5.886 -0.0952 -0.0347 -0.0129
 1940TIP3    H132743   3.391   8.038   5.908  0.4400 -0.8944  4.4126
 1940TIP3    H232744   3.459   7.905   5.883  0.7244 -0.2784  1.6866
 1941TIP3   OH232745   3.877   3.721   6.277 -0.0242 -0.7669  0.5533
 1941TIP3    H132746   3.917   3.743   6.361  0.8146 -0.8239  0.1767
 1941TIP3    H232747   3.867   3.626   6.279 -1.9662 -0.5854  1.4353
 1942TIP3   OH232748   3.325   6.667   0.716 -0.3285  0.0314  0.1988
 1942TIP3    H132749   3.295   6.583   0.750 -0.4914 -0.2728 -0.6782
 1942TIP3    H232750   3.306   6.664   0.622  0.1780  0.8229  0.0568
 1943TIP3   OH232751   5.346   1.990   5.919  0.5544 -0.1179  0.4526
 1943TIP3    H132752   5.421   1.990   5.860  0.6937  1.9602  0.5475
 1943TIP3    H232753   5.380   2.029   6.000 -0.2098 -0.7979  1.1191
 1944TIP3   OH232754   6.086   2.391   1.283  0.4457 -0.3913 -0.4771
 1944TIP3    H132755   6.072   2.420   1.193  0.1582 -1.6344 -0.8552
 1944TIP3    H232756   6.148   2.454   1.319 -2.3155  2.5030 -0.2794
 1945TIP3   OH232757   1.498   8.393   5.865 -0.3380 -0.2378  0.4712
 1945TIP3    H132758   1.556   8.426   5.933 -1.0279  0.1089  0.9031
 1945TIP3    H232759   1.427   8.458   5.860  0.2338  0.3009 -1.3173
 1946TIP3   OH232760   1.764   1.669   0.086 -0.1248  0.3883  0.8795
 1946TIP3    H132761   1.798   1.592   0.131  0.8042  0.2297 -0.0643
 1946TIP3    H232762   1.802   1.665   7.069 -3.1282 -0.1937 -0.5414
 1947TIP3   OH232763   5.093   4.791   0.692 -0.4233  0.5645  0.2947
 1947TIP3    H132764   5.142   4.717   0.656 -1.1580  0.5738 -0.7702
 1947TIP3    H232765   5.014   4.751   0.730 -0.6441  0.7645  0.0446
 1948TIP3   OH232766   4.819   7.619   5.655 -0.4214  0.1965  0.0289
 1948TIP3    H132767   4.865   7.686   5.606  2.2589 -1.0093  0.7238
 1948TIP3    H232768   4.808   7.547   5.593 -0.5021  0.1193  0.1317
 1949TIP3   OH232769   1.253   3.868   5.244  0.1990 -0.1397  0.8985
 1949TIP3    H132770   1.332   3.913   5.214 -0.2631  1.5217  2.0514
 1949TIP3    H232771   1.273   3.842   5.334 -0.1857 -0.6911  0.8302
 1950TIP3   OH232772   0.406   8.341   0.113  0.4106 -0.2147  0.2534
 1950TIP3    H132773   0.351   8.410   0.075  0.9032 -0.6530 -1.3356
 1950TIP3    H232774   0.344   8.270   0.134 -0.0568  0.5624  1.6361
 1951TIP3   OH232775   0.446   6.404   5.704  0.2930 -0.2307 -0.2525
 1951TIP3    H132776   0.383   6.475   5.691  1.8007  1.1067 -0.5917
 1951TIP3    H232777   0.470   6.376   5.616 -0.8185 -1.6820 -0.1171
 1952TIP3   OH232778   4.812   0.602   6.137  0.0615 -0.2488 -0.3465
 1952TIP3    H132779   4.816   0.693   6.109 -1.2799 -0.1753 -0.3833
 1952TIP3    H232780   4.878   0.557   6.085  1.0237  0.7746 -0.0290
 1953TIP3   OH232781   2.997   3.751   6.354  0.0744 -0.4088  0.0460
 1953TIP3    H132782   2.915   3.736   6.307 -1.5056 -0.5557  2.6620
 1953TIP3    H232783   2.978   3.824   6.413  1.8114 -0.4830  0.7696
 1954TIP3   OH232784   6.413   1.381   0.560  0.2604  0.2505 -0.4372
 1954TIP3    H132785   6.363   1.444   0.611  1.6201 -0.2510  1.6495
 1954TIP3    H232786   6.431   1.425   0.477 -0.4534  1.8377  0.2172
 1955TIP3   OH232787   5.038   0.887   6.719 -0.1461 -0.3602 -0.0347
 1955TIP3    H132788   4.992   0.943   6.656  0.6834  0.1360 -0.2207
 1955TIP3    H232789   5.034   0.936   6.801 -1.0863 -0.9327  0.2752
 1956TIP3   OH232790   7.572   7.885   4.913 -0.1150 -0.2868 -0.4411
 1956TIP3    H132791   7.654   7.840   4.894  1.0775  0.5795  2.1482
 1956TIP3    H232792   7.599   7.972   4.944 -2.1723  1.0289 -2.0361
 1957TIP3   OH232793   4.711   1.229   0.762 -0.1948 -0.0252 -0.3173
 1957TIP3    H132794   4.690   1.322   0.747  0.1558  0.1512  0.2761
 1957TIP3    H232795   4.802   1.229   0.791 -0.9080 -0.2827  2.1917
 1958TIP3   OH232796   7.966   1.907   5.042  0.0625 -0.2539 -0.1966
 1958TIP3    H132797   8.053   1.868   5.036 -0.6618 -1.8403 -1.1507
 1958TIP3    H232798   7.917   1.867   4.970 -0.8650  2.2023 -1.0127
 1959TIP3   OH232799   4.871   5.082   6.361  0.2186  0.2880 -0.5150
 1959TIP3    H132800   4.925   5.146   6.408  0.8405 -1.6470  1.5558
 1959TIP3    H232801   4.781   5.113   6.373  0.5308  0.9946  0.1074
 1960TIP3   OH232802   1.586   8.190   0.015 -0.1857 -0.0478  0.1692
 1960TIP3    H132803   1.493   8.211   0.014 -0.0217  1.5414 -4.6231
 1960TIP3    H232804   1.596   8.121   7.021  2.2696  2.1884 -2.0384
 1961TIP3   OH232805   5.817   3.838   0.175  0.3262 -0.1850 -0.3996
 1961TIP3    H132806   5.807   3.766   0.237 -1.9060 -0.3169 -0.8394
 1961TIP3    H232807   5.782   3.804   0.093  2.2632  0.3458 -1.5299
 1962TIP3   OH232808   2.195   4.456   4.835  0.4868  0.1672 -0.2928
 1962TIP3    H132809   2.214   4.524   4.899  0.0122 -0.4069  0.4692
 1962TIP3    H232810   2.263   4.467   4.768  0.6638  1.1172  0.0219
 1963TIP3   OH232811   5.824   5.277   0.550  0.1868 -0.2432 -0.5150
 1963TIP3    H132812   5.870   5.275   0.634  0.7854  3.1533 -0.6093
 1963TIP3    H232813   5.891   5.253   0.486  0.5918  0.1507 -0.2474
 1964TIP3   OH232814   7.312   3.464   6.697  0.0081  0.3459 -0.1055
 1964TIP3    H132815   7.216   3.460   6.691  0.1154 -0.0751 -3.3376
 1964TIP3    H232816   7.332   3.558   6.695 -0.3115  0.4979  1.8510
 1965TIP3   OH232817   3.686   7.791   6.344 -0.0455  0.1711  0.2907
 1965TIP3    H132818   3.676   7.852   6.271 -2.7281  1.4099  1.5471
 1965TIP3    H232819   3.765   7.740   6.323  0.8679  2.3518 -2.0424
 1966TIP3   OH232820   0.576   0.658   6.103 -0.2209  0.3033  0.5320
 1966TIP3    H132821   0.557   0.734   6.049 -0.5846 -0.2917 -0.1932
 1966TIP3    H232822   0.664   0.674   6.138 -0.5013  1.2865  0.8138
 1967TIP3   OH232823   7.585   4.728   0.695  0.1379  0.0772 -0.0560
 1967TIP3    H132824   7.590   4.785   0.618 -1.1595  0.2689 -0.0165
 1967TIP3    H232825   7.502   4.752   0.737 -0.4323 -1.8353 -0.0279
 1968TIP3   OH232826   0.942   2.166   0.023 -0.5010  0.2511  0.0457
 1968TIP3    H132827   0.963   2.073   0.011 -0.6352 -0.6304  4.6605
 1968TIP3    H232828   0.849   2.166   0.047 -0.5012  1.5761  0.0720
 1969TIP3   OH232829   5.637   0.651   5.435 -0.7655  0.0312  0.0537
 1969TIP3    H132830   5.609   0.579   5.492 -1.2968 -0.5369 -0.9050
 1969TIP3    H232831   5.715   0.617   5.390 -1.1747 -0.0407 -0.5979
 1970TIP3   OH232832   0.483   1.699   6.134  0.3390 -0.2702  0.0684
 1970TIP3    H132833   0.447   1.643   6.065 -1.1979 -3.4734  3.1343
 1970TIP3    H232834   0.440   1.783   6.123 -0.2639 -0.8375 -2.4685
 1971TIP3   OH232835   6.659   7.030   6.676 -0.6291 -0.2039  0.2934
 1971TIP3    H132836   6.680   7.123   6.681  0.0360 -0.3696  0.7698
 1971TIP3    H232837   6.634   7.006   6.765 -0.3212 -0.5906  0.2776
 1972TIP3   OH232838   7.967   6.503   1.844 -0.2833 -0.1252  0.2051
 1972TIP3    H132839   7.890   6.504   1.900  0.5527  1.9680  1.4096
 1972TIP3    H232840   8.039   6.477   1.902  0.0582 -1.4208 -0.7523
 1973TIP3   OH232841   3.725   5.205   6.926  0.1265  0.3322  0.3915
 1973TIP3    H132842   3.770   5.122   6.915  0.0456  0.0740  1.7791
 1973TIP3    H232843   3.633   5.185   6.909 -0.3141 -0.5370  3.2963
 1974TIP3   OH232844   5.225   6.476   5.904  0.2148  0.4852 -0.5123
 1974TIP3    H132845   5.250   6.423   5.979  3.0427  0.8536 -1.1000
 1974TIP3    H232846   5.181   6.415   5.844  0.2107 -0.3601  0.3386
 1975TIP3   OH232847   2.765   4.762   6.020 -0.3611  0.4250  0.7911
 1975TIP3    H132848   2.739   4.700   6.088 -0.4552  0.1283  0.4868
 1975TIP3    H232849   2.759   4.713   5.938 -2.3598  1.3742  0.3005
 1976TIP3   OH232850   2.433   0.936   0.693  0.0904  0.2399  0.3146
 1976TIP3    H132851   2.459   0.844   0.697  0.5581  0.3514 -0.0231
 1976TIP3    H232852   2.490   0.974   0.626 -0.5784  0.6210 -0.0475
 1977TIP3   OH232853   3.891   5.483   6.178 -0.1553  0.3061  0.0586
 1977TIP3    H132854   3.954   5.442   6.118 -0.1204 -0.4886  0.6196
 1977TIP3    H232855   3.946   5.531   6.240 -0.0892 -0.3707  0.5360
 1978TIP3   OH232856   2.794   4.983   0.235 -0.1269 -0.1729 -0.1248
 1978TIP3    H132857   2.781   5.014   0.324 -4.2030  1.4121 -1.0318
 1978TIP3    H232858   2.734   4.910   0.225  0.8125 -0.8244 -1.4023
 1979TIP3   OH232859   0.082   0.349   0.122  0.3721 -0.0748  0.6871
 1979TIP3    H132860   0.165   0.327   0.080  0.3519  0.1398  0.5318
 1979TIP3    H232861   0.105   0.362   0.214  0.5324  0.1002  0.6238
 1980TIP3   OH232862   1.003   7.793   6.629 -0.0718 -0.2204  0.2749
 1980TIP3    H132863   0.956   7.767   6.709  0.6163 -0.2099  0.6971
 1980TIP3    H232864   1.036   7.710   6.593 -0.9315 -0.2970 -0.3671
 1981TIP3   OH232865   3.314   1.958   1.577  0.0375  0.3348  0.3291
 1981TIP3    H132866   3.408   1.963   1.597  0.2923  0.1872 -0.7626
 1981TIP3    H232867   3.309   1.968   1.482 -0.9884 -0.4504  0.2804
 1982TIP3   OH232868   2.296   5.218   0.141  0.0571  0.2051 -0.4625
 1982TIP3    H132869   2.391   5.202   0.139  0.3270  1.6288 -2.4788
 1982TIP3    H232870   2.277   5.233   0.233  2.5158  3.2458 -0.2531
 1983TIP3   OH232871   1.329   4.244   5.418  0.3716 -0.1130  0.2372
 1983TIP3    H132872   1.306   4.226   5.327  0.9619  2.9790 -0.6431
 1983TIP3    H232873   1.420   4.275   5.414  1.0582 -1.6752  2.1583
 1984TIP3   OH232874   2.020   8.032   0.718  0.4735  1.1619  0.0697
 1984TIP3    H132875   1.944   7.982   0.746  1.2359 -0.2082 -0.2332
 1984TIP3    H232876   2.005   8.050   0.625  1.4587 -0.9979 -0.5737
 1985TIP3   OH232877   3.605   3.003   5.810  0.3742  0.2321  0.5329
 1985TIP3    H132878   3.523   2.975   5.851  0.1992 -0.2745 -0.1332
 1985TIP3    H232879   3.586   3.000   5.716  0.7365  1.4321  0.3980
 1986TIP3   OH232880   5.937   2.126   5.770  0.1904 -0.2014  0.3787
 1986TIP3    H132881   5.945   2.034   5.796  0.6941  0.0257  1.0692
 1986TIP3    H232882   5.874   2.163   5.833  2.8581  0.8179  2.6860
 1987TIP3   OH232883   6.915   5.367   7.012 -0.0657  0.3991  0.1471
 1987TIP3    H132884   6.869   5.382   0.024  0.9611  2.6481  0.3930
 1987TIP3    H232885   6.927   5.273   7.008 -1.8023  0.0615  1.6318
 1988TIP3   OH232886   0.237   6.636   5.792 -0.4231  0.2022 -0.0847
 1988TIP3    H132887   0.185   6.678   5.860 -0.1984  0.5947 -0.1483
 1988TIP3    H232888   0.293   6.706   5.758 -1.2230  0.2658 -1.3575
 1989TIP3   OH232889   0.541   7.287   5.437 -0.6726  0.1357 -0.3380
 1989TIP3    H132890   0.599   7.285   5.361 -1.5657  0.2969 -1.0389
 1989TIP3    H232891   0.517   7.196   5.451 -1.2838  0.2033 -0.8755
 1990TIP3   OH232892   3.215   1.827   0.766 -0.3804  0.2351  0.0717
 1990TIP3    H132893   3.151   1.899   0.771 -0.1534  0.7983 -3.0638
 1990TIP3    H232894   3.298   1.868   0.791 -0.8849 -0.1073  2.5754
 1991TIP3   OH232895   3.203   2.242   0.959 -0.3240 -0.6495 -0.1576
 1991TIP3    H132896   3.149   2.188   0.903  1.4054 -1.2379 -1.3552
 1991TIP3    H232897   3.189   2.331   0.928 -0.0096 -0.8851 -1.0003
 1992TIP3   OH232898   3.137   5.637   1.198  0.3558  0.4960 -0.0015
 1992TIP3    H132899   3.181   5.713   1.236 -1.3237 -0.1438  3.6763
 1992TIP3    H232900   3.200   5.566   1.206  0.3458  0.5712  0.7593
 1993TIP3   OH232901   3.432   5.659   6.758 -1.0931  0.6384  0.0429
 1993TIP3    H132902   3.403   5.719   6.689 -2.9546  0.5640  0.7014
 1993TIP3    H232903   3.465   5.582   6.712 -2.4730  0.5155 -0.7775
 1994TIP3   OH232904   2.455   4.747   0.972 -0.3952  0.4679  0.7718
 1994TIP3    H132905   2.402   4.677   1.011  0.3568  0.6644  2.2171
 1994TIP3    H232906   2.393   4.818   0.957 -1.2053 -0.5329 -0.8753
 1995TIP3   OH232907   4.779   8.262   0.905  0.2551 -0.0912  0.2675
 1995TIP3    H132908   4.813   8.351   0.904  0.4756 -0.1726 -0.9467
 1995TIP3    H232909   4.697   8.267   0.856 -0.8292 -0.1648  1.9729
 1996TIP3   OH232910   3.534   6.479   5.549 -0.0972 -0.0843  1.0591
 1996TIP3    H132911   3.567   6.523   5.470 -0.6167 -0.7295  0.4675
 1996TIP3    H232912   3.439   6.488   5.544 -0.2125 -1.1753  0.9656
 1997TIP3   OH232913   5.275   5.947   1.068 -0.6694 -0.0385  0.7211
 1997TIP3    H132914   5.358   5.904   1.087 -1.2756 -2.0974 -0.8059
 1997TIP3    H232915   5.237   5.965   1.154  0.8048 -0.1843  1.4293
 1998TIP3   OH232916   5.614   1.708   0.885  0.2564 -0.9841  0.4395
 1998TIP3    H132917   5.566   1.769   0.829 -0.7464  0.0032  2.2551
 1998TIP3    H232918   5.685   1.676   0.830  0.7240  1.6912 -0.7056
 1999TIP3   OH232919   3.328   0.048   6.031  0.4132  1.0280  0.1429
 1999TIP3    H132920   3.261   0.110   6.004 -1.6136 -0.5466  1.2122
 1999TIP3    H232921   3.359   0.008   5.950 -2.4123 -0.5476 -0.2934
 2000TIP3   OH232922   7.592   4.244   0.128  0.0528 -0.4631  0.0734
 2000TIP3    H132923   7.530   4.291   0.184  0.3576  0.2271 -0.1603
 2000TIP3    H232924   7.609   4.303   0.055 -0.5962 -1.4916 -0.9409
 2001TIP3   OH232925   6.622   5.429   5.322 -0.4554 -0.6134  0.0673
 2001TIP3    H132926   6.532   5.405   5.340  0.0731 -2.0284  0.9632
 2001TIP3    H232927   6.616   5.490   5.248 -2.1386 -0.5233  0.2397
 2002TIP3   OH232928   2.324   7.468   1.795 -0.1978  0.1509 -0.3994
 2002TIP3    H132929   2.264   7.434   1.861 -0.2643  0.3419 -0.3602
 2002TIP3    H232930   2.402   7.495   1.843  0.1102 -0.5376 -0.5086
 2003TIP3   OH232931   5.112   2.026   6.796  0.0696 -0.2209  0.3506
 2003TIP3    H132932   5.034   2.076   6.819  0.3323 -0.5578  2.0846
 2003TIP3    H232933   5.088   1.935   6.809  0.2433 -0.4395 -0.7632
 2004TIP3   OH232934   3.568   4.855   0.548  1.0203  0.4610 -0.0781
 2004TIP3    H132935   3.664   4.850   0.554  0.9649  0.4275  0.8500
 2004TIP3    H232936   3.536   4.807   0.624  0.2328 -0.6251 -1.0615
 2005TIP3   OH232937   3.007   1.690   0.629 -0.2860  0.3560  0.2437
 2005TIP3    H132938   3.069   1.736   0.685  0.9588  0.1265 -0.8973
 2005TIP3    H232939   3.018   1.597   0.651  1.0176  0.1555 -1.1050
 2006TIP3   OH232940   3.041   4.355   6.904 -0.1885 -0.2021  0.1727
 2006TIP3    H132941   3.057   4.364   6.810 -1.3779  1.5840  0.0901
 2006TIP3    H232942   2.974   4.288   6.911  0.0514 -0.4893 -0.2299
 2007TIP3   OH232943   3.870   2.860   0.898  0.8006  0.4404 -0.0956
 2007TIP3    H132944   3.948   2.814   0.928  0.3139 -0.6899 -0.5031
 2007TIP3    H232945   3.903   2.944   0.866  1.5926  0.7814  1.5061
 2008TIP3   OH232946   4.686   5.840   1.465 -0.1873  0.0458  0.1801
 2008TIP3    H132947   4.638   5.845   1.548  3.0594  0.0090  2.2046
 2008TIP3    H232948   4.688   5.931   1.433 -1.7737  0.0030 -0.1284
 2009TIP3   OH232949   5.987   8.386   1.530  0.1926 -0.0281 -0.2124
 2009TIP3    H132950   5.894   8.396   1.509 -0.5326 -0.4858  2.4722
 2009TIP3    H232951   6.014   8.471   1.564  0.1711 -0.4487  0.9151
 2010TIP3   OH232952   3.192   0.980   1.434  0.3825  0.3817 -0.0780
 2010TIP3    H132953   3.239   1.062   1.432  0.5601  0.2731 -0.3518
 2010TIP3    H232954   3.116   0.993   1.377  0.2979  0.4222  0.0420
 2011TIP3   OH232955   3.043   4.861   0.261 -0.2238  0.5734  1.0200
 2011TIP3    H132956   3.023   4.835   0.171  0.8613  1.7570  0.4151
 2011TIP3    H232957   2.966   4.911   0.289 -0.1352  1.0743  0.3865
 2012TIP3   OH232958   1.860   4.596   0.982  0.1414  0.3063 -0.4140
 2012TIP3    H132959   1.795   4.589   1.052 -0.7113 -0.0645 -1.2201
 2012TIP3    H232960   1.902   4.510   0.978  0.8949  0.6250  0.2838
 2013TIP3   OH232961   1.926   3.572   6.780  0.2491  0.1080  0.1735
 2013TIP3    H132962   1.918   3.483   6.814  1.0741  0.3277  0.9654
 2013TIP3    H232963   1.925   3.628   6.858 -0.5168  0.8247 -0.3300
 2014TIP3   OH232964   5.149   4.076   5.432 -0.4536 -0.0270 -0.6562
 2014TIP3    H132965   5.238   4.070   5.397 -1.0571 -1.5351 -2.0356
 2014TIP3    H232966   5.092   4.066   5.356 -1.8863  3.1536 -0.1947
 2015TIP3   OH232967   4.020   7.720   1.906  0.6288 -0.1243  0.6070
 2015TIP3    H132968   4.102   7.692   1.865  1.9220  2.2440  1.3727
 2015TIP3    H232969   3.976   7.772   1.838  1.3988  1.3799  1.2090
 2016TIP3   OH232970   5.475   5.794   1.157 -0.0574  0.1876  0.2400
 2016TIP3    H132971   5.406   5.754   1.211  0.5581 -1.6829 -0.2649
 2016TIP3    H232972   5.555   5.749   1.184  0.2904 -0.7392 -2.1076
 2017TIP3   OH232973   3.591   8.366   0.266 -0.5722 -0.0144 -0.4360
 2017TIP3    H132974   3.508   8.398   0.230 -0.1271 -0.9679 -2.4371
 2017TIP3    H232975   3.654   8.434   0.246 -0.9779  1.2318  2.0626
 2018TIP3   OH232976   2.546   5.560   0.206 -0.2978 -0.1587  0.2778
 2018TIP3    H132977   2.637   5.536   0.191 -0.4160 -1.9855  2.0408
 2018TIP3    H232978   2.500   5.533   0.126  0.4487 -0.7384  0.0359
 2019TIP3   OH232979   0.372   2.015   5.797 -0.0671 -0.2619  0.4429
 2019TIP3    H132980   0.431   2.090   5.803  0.7119 -0.8566  0.4068
 2019TIP3    H232981   0.305   2.042   5.734  0.2078  0.3975  0.4225
 2020TIP3   OH232982   7.701   5.278   5.113  0.4386  0.1044 -0.3809
 2020TIP3    H132983   7.739   5.286   5.025  1.1203 -0.2051 -0.1201
 2020TIP3    H232984   7.608   5.296   5.100  0.7305  1.3605 -0.9684
 2021TIP3   OH232985   5.593   3.118   0.651  0.6389 -0.2352 -0.2587
 2021TIP3    H132986   5.571   3.203   0.687 -1.0787  0.6264 -3.0502
 2021TIP3    H232987   5.655   3.080   0.714 -0.2838  2.0734  2.1931
 2022TIP3   OH232988   6.000   8.116   1.381 -0.2432  1.0766 -0.2212
 2022TIP3    H132989   6.064   8.187   1.374  0.9453  0.0856  0.2115
 2022TIP3    H232990   5.926   8.155   1.427  0.9003  1.7170  1.1682
 2023TIP3   OH232991   7.419   1.991   6.953 -0.4757  0.5990  0.1801
 2023TIP3    H132992   7.488   2.037   7.001  0.7183 -0.5573 -0.3716
 2023TIP3    H232993   7.351   1.973   7.019 -0.2625  1.7165  0.7347
 2024TIP3   OH232994   4.523   1.068   6.875  0.2266  0.9010 -0.0309
 2024TIP3    H132995   4.562   1.086   6.789 -2.1762 -1.8977 -1.9454
 2024TIP3    H232996   4.589   1.015   6.920  0.7117  0.5826 -1.0729
 2025TIP3   OH232997   5.207   0.668   6.290 -0.3325 -0.1555  0.6935
 2025TIP3    H132998   5.172   0.605   6.354 -0.8729 -2.4081 -1.6007
 2025TIP3    H232999   5.132   0.725   6.270 -0.4037  0.0178  1.4298
 2026TIP3   OH233000   4.717   2.794   5.767  0.2947  0.0293 -0.2106
 2026TIP3    H133001   4.706   2.889   5.778 -1.0743 -0.0364 -0.8121
 2026TIP3    H233002   4.646   2.769   5.708  0.4359 -1.4376  0.2175
 2027TIP3   OH233003   2.598   6.692   5.796  0.5964 -0.1320  0.2543
 2027TIP3    H133004   2.615   6.774   5.751 -1.0538 -0.3962 -0.9381
 2027TIP3    H233005   2.662   6.631   5.760  1.1162  0.3531  0.3437
 2028TIP3   OH233006   3.223   2.068   1.921  0.1475  0.4840  0.0782
 2028TIP3    H133007   3.298   2.126   1.904  0.1418  0.5804  0.3836
 2028TIP3    H233008   3.239   2.033   2.009 -1.0526  1.8629  0.8770
 2029TIP3   OH233009   7.469   4.918   6.467  0.1134  0.2004  0.3111
 2029TIP3    H133010   7.451   4.955   6.381 -1.4722 -1.2886 -0.0456
 2029TIP3    H233011   7.559   4.885   6.460 -0.5619 -1.4965 -1.4357
 2030TIP3   OH233012   6.786   7.033   6.241  0.3101  0.0369 -0.0539
 2030TIP3    H133013   6.737   7.045   6.160 -1.0209  2.3912  0.9905
 2030TIP3    H233014   6.853   7.101   6.239  0.7774 -0.4011  0.4679
 2031TIP3   OH233015   6.714   3.590   5.618  0.1174  0.2115  0.2686
 2031TIP3    H133016   6.680   3.577   5.530 -3.3153 -2.9948  1.7635
 2031TIP3    H233017   6.809   3.590   5.608 -0.1387  1.6723 -3.4998
 2032TIP3   OH233018   7.586   6.908   1.022 -0.5742 -0.0275 -0.0326
 2032TIP3    H133019   7.663   6.962   1.039  0.0593 -1.3365  1.4847
 2032TIP3    H233020   7.518   6.945   1.077 -0.5818  0.1545 -0.1626
 2033TIP3   OH233021   2.273   7.560   1.538  0.0119  0.0401  0.9220
 2033TIP3    H133022   2.348   7.621   1.536  0.1952 -0.1767  1.0722
 2033TIP3    H233023   2.284   7.512   1.620 -0.6101  0.3980  1.2191
 2034TIP3   OH233024   8.002   6.693   5.276  0.6903  0.0222 -0.3739
 2034TIP3    H133025   7.968   6.775   5.241  1.8760  1.0419  0.7773
 2034TIP3    H233026   7.934   6.663   5.336 -1.2535 -1.6176 -3.1413
 2035TIP3   OH233027   5.921   7.818   5.472 -0.1442 -0.3953  0.4892
 2035TIP3    H133028   5.863   7.889   5.500 -0.5275 -1.0322  1.3878
 2035TIP3    H233029   5.940   7.836   5.381 -0.3129  0.8087  0.6830
 2036TIP3   OH233030   4.748   6.466   0.410  0.2097 -0.0078 -0.2953
 2036TIP3    H133031   4.754   6.408   0.334  0.4148 -2.4858  1.4842
 2036TIP3    H233032   4.820   6.528   0.398  0.2549 -0.3452 -2.0829
 2037TIP3   OH233033   8.162   4.012   6.184  0.9958  0.1028 -0.2035
 2037TIP3    H133034   8.116   3.963   6.116  2.5403 -1.0392 -0.4827
 2037TIP3    H233035   8.241   3.961   6.201  0.1154 -0.3658  3.3454
 2038TIP3   OH233036   3.880   0.384   0.244 -0.6699  0.4266  0.6107
 2038TIP3    H133037   3.949   0.346   0.189 -1.8265 -0.0994 -0.5298
 2038TIP3    H233038   3.846   0.458   0.193 -1.3894  0.2666  0.8377
 2039TIP3   OH233039   2.471   0.446   0.205  0.7983  0.4421 -0.5624
 2039TIP3    H133040   2.401   0.445   0.139  1.8685 -1.0999 -1.7404
 2039TIP3    H233041   2.545   0.404   0.161  0.9687 -2.5607  2.2302
 2040TIP3   OH233042   0.188   6.324   6.927  0.1568 -0.5451 -0.3814
 2040TIP3    H133043   0.204   6.328   6.832  0.6279 -3.3587 -0.5187
 2040TIP3    H233044   0.276   6.322   6.965 -0.0317 -0.0010  0.0878
 2041TIP3   OH233045   5.172   4.405   1.212  0.2552  0.4453 -0.0494
 2041TIP3    H133046   5.082   4.408   1.182  0.0646  3.1283  0.5659
 2041TIP3    H233047   5.224   4.400   1.131 -0.3950 -1.2969 -0.3986
 2042TIP3   OH233048   5.585   4.742   6.742  0.4323  0.4473  0.1691
 2042TIP3    H133049   5.659   4.694   6.779 -0.0944 -1.3684 -0.9452
 2042TIP3    H233050   5.599   4.739   6.647 -0.4856  1.0592 -0.0078
 2043TIP3   OH233051   6.324   6.335   6.901  0.4515  0.2558 -0.3451
 2043TIP3    H133052   6.302   6.283   6.824 -1.0178  0.3176  0.0190
 2043TIP3    H233053   6.412   6.369   6.882  1.4057 -2.1538 -0.6746
 2044TIP3   OH233054   1.177   1.857   1.374 -0.3308 -0.3790  0.0356
 2044TIP3    H133055   1.166   1.893   1.286 -0.3895 -2.1442 -0.7388
 2044TIP3    H233056   1.210   1.929   1.427 -1.6837  1.1190 -1.0803
 2045TIP3   OH233057   3.410   2.919   5.959 -0.0892 -0.4167 -0.3780
 2045TIP3    H133058   3.361   2.837   5.962  0.4205 -0.6934  1.1812
 2045TIP3    H233059   3.408   2.952   6.049  2.1051 -0.1664 -0.3623
 2046TIP3   OH233060   0.295   7.251   6.248  0.3898  0.2437 -0.4764
 2046TIP3    H133061   0.318   7.158   6.255  0.2038 -0.0251 -2.7430
 2046TIP3    H233062   0.232   7.255   6.177 -1.0492  1.9202  0.8155
 2047TIP3   OH233063   8.127   3.582   0.552 -0.5280  0.1663  0.0542
 2047TIP3    H133064   8.090   3.659   0.509  0.8391  0.1399 -1.2603
 2047TIP3    H233065   8.150   3.523   0.480  0.4425 -0.5431  0.9192
 2048TIP3   OH233066   2.636   2.984   5.409  0.2278 -0.2724  0.2946
 2048TIP3    H133067   2.585   2.992   5.490  1.4857  0.6772  1.0156
 2048TIP3    H233068   2.584   3.031   5.343 -1.0220 -1.4333  0.4141
 2049TIP3   OH233069   0.733   5.485   0.745 -0.3951 -0.1126  0.8438
 2049TIP3    H133070   0.708   5.448   0.661  0.2937 -0.1636  0.6586
 2049TIP3    H233071   0.682   5.436   0.809 -3.5779  2.1420  0.3067
 2050TIP3   OH233072   6.116   4.237   0.934  0.3063  0.2082 -0.4234
 2050TIP3    H133073   6.125   4.313   0.991  0.8712  0.2799 -0.6004
 2050TIP3    H233074   6.123   4.272   0.845 -2.5579  0.3839 -0.6610
 2051TIP3   OH233075   3.516   6.495   6.278 -0.2638  0.4695  0.3734
 2051TIP3    H133076   3.602   6.521   6.245  0.1019 -1.0648  0.0567
 2051TIP3    H233077   3.455   6.549   6.227  0.4343  0.3416 -0.6283
 2052TIP3   OH233078   1.698   2.551   6.628 -0.0497  0.2980  0.2534
 2052TIP3    H133079   1.686   2.602   6.548 -0.4904  0.0618  0.1643
 2052TIP3    H233080   1.727   2.615   6.693  0.4318  0.4690 -0.1258
 2053TIP3   OH233081   0.475   3.407   7.003  0.1659 -0.2373  0.3485
 2053TIP3    H133082   0.545   3.375   7.060  1.2021 -0.1827 -0.8482
 2053TIP3    H233083   0.394   3.383   7.048  0.8854 -3.2432  0.1913
 2054TIP3   OH233084   5.268   0.836   0.109  0.4837 -0.0497  0.1268
 2054TIP3    H133085   5.208   0.867   0.176 -0.2384 -0.7431 -0.1799
 2054TIP3    H233086   5.262   0.741   0.113  0.3129 -0.1042 -1.0111
 2055TIP3   OH233087   0.696   7.267   1.815  0.3887  0.0064  0.0103
 2055TIP3    H133088   0.732   7.245   1.730  1.3140  1.2760  0.0487
 2055TIP3    H233089   0.694   7.363   1.817 -2.2365  0.0430  0.3404
 2056TIP3   OH233090   2.974   3.914   6.773  0.3361 -0.2864 -0.0713
 2056TIP3    H133091   2.918   3.977   6.818  0.7073  0.0575 -0.0862
 2056TIP3    H233092   2.957   3.928   6.680  1.2359  0.5715 -0.1246
 2057TIP3   OH233093   2.544   1.270   5.466  0.5192  0.5535  0.0856
 2057TIP3    H133094   2.461   1.302   5.430  0.0205  1.9491  2.2962
 2057TIP3    H233095   2.559   1.187   5.421 -1.9795  0.3348 -0.5025
 2058TIP3   OH233096   0.620   1.821   0.778  0.4738  0.0705 -0.2954
 2058TIP3    H133097   0.563   1.879   0.727  0.7693  0.7760  0.1507
 2058TIP3    H233098   0.586   1.733   0.762 -1.3495  0.5428  0.7280
 2059TIP3   OH233099   2.037   0.568   0.468  0.3020  0.1254 -0.5082
 2059TIP3    H133100   2.002   0.479   0.460 -1.0646  0.6422 -0.6888
 2059TIP3    H233101   2.102   0.575   0.399  1.2428 -1.0810  0.2164
 2060TIP3   OH233102   4.214   1.791   0.690 -0.2129  0.6118  0.2548
 2060TIP3    H133103   4.223   1.848   0.613  1.0358 -0.5922 -0.5313
 2060TIP3    H233104   4.200   1.704   0.653  0.8792 -0.0644  1.3676
 2061TIP3   OH233105   8.324   4.610   4.786  0.1010  0.4091  0.3793
 2061TIP3    H133106   8.409   4.628   4.746 -0.3466 -0.2566 -0.9347
 2061TIP3    H233107   8.262   4.664   4.736 -0.4016 -0.0078  0.5370
 2062TIP3   OH233108   8.371   8.008   1.053  0.1048 -0.4493 -0.4158
 2062TIP3    H133109   8.317   7.972   0.983 -0.2380 -0.5759 -0.0904
 2062TIP3    H233110   8.331   8.093   1.073 -0.3592 -0.8116  0.2485
 2063TIP3   OH233111   6.706   0.609   0.143  0.2623  0.4997  0.2835
 2063TIP3    H133112   6.735   0.617   0.053  0.5422 -0.5072  0.2689
 2063TIP3    H233113   6.688   0.699   0.171  0.2950  0.8303 -0.7255
 2064TIP3   OH233114   4.689   4.815   6.969 -0.4421  0.2304  0.0774
 2064TIP3    H133115   4.660   4.898   6.931 -1.6584 -0.3957 -0.4123
 2064TIP3    H233116   4.610   4.762   6.974  0.5619 -1.4891 -1.1464
 2065TIP3   OH233117   1.288   1.179   0.970  0.2307  0.2307 -0.2162
 2065TIP3    H133118   1.316   1.252   1.025  1.6739 -0.3154 -0.1870
 2065TIP3    H233119   1.242   1.220   0.897 -0.6777  1.0317  0.7761
 2066TIP3   OH233120   4.994   6.735   6.929 -0.4741 -0.2883 -0.5166
 2066TIP3    H133121   5.057   6.759   6.860 -1.0272  1.7929 -0.3577
 2066TIP3    H233122   4.943   6.664   6.890  1.5883 -1.7090 -0.8431
 2067TIP3   OH233123   7.671   5.369   6.507 -0.5647  0.2956 -0.1963
 2067TIP3    H133124   7.600   5.397   6.450 -0.1891  2.7258  0.4002
 2067TIP3    H233125   7.657   5.418   6.589  0.4994 -0.9356  0.7664
 2068TIP3   OH233126   7.857   6.823   1.608 -0.2013  0.1395  0.9261
 2068TIP3    H133127   7.944   6.792   1.581  0.1315  0.1096  1.9921
 2068TIP3    H233128   7.802   6.745   1.602 -0.1490  0.1482  0.2853
 2069TIP3   OH233129   1.513   1.899   0.814  0.2319  0.0773 -0.1066
 2069TIP3    H133130   1.575   1.942   0.756  0.4698  0.5223  0.4780
 2069TIP3    H233131   1.481   1.968   0.872 -1.1479 -0.0385 -0.6693
 2070TIP3   OH233132   6.095   1.957   0.721  0.3964 -0.1058 -0.1871
 2070TIP3    H133133   6.117   1.914   0.639  1.8667  0.7368 -0.2756
 2070TIP3    H233134   6.000   1.955   0.725  0.3418 -3.6616  0.0096
 2071TIP3   OH233135   8.508   0.227   1.009  0.1702 -0.2463 -0.1202
 2071TIP3    H133136   0.032   0.302   1.013 -0.3199  0.1357  0.0939
 2071TIP3    H233137   0.026   0.153   1.037 -0.1781  0.5405  2.9537
 2072TIP3   OH233138   4.310   0.476   0.701 -0.0684 -0.6372 -0.3189
 2072TIP3    H133139   4.369   0.540   0.741  0.7119  0.1834 -2.5787
 2072TIP3    H233140   4.341   0.392   0.733  0.5256 -0.0362  0.7455
 2073TIP3   OH233141   2.839   5.272   0.737  0.8227  0.1994 -0.0545
 2073TIP3    H133142   2.865   5.245   0.826 -2.6111 -1.8831  0.5159
 2073TIP3    H233143   2.919   5.306   0.698  2.9770 -0.7157  3.1463
 2074TIP3   OH233144   0.707   4.903   5.510  0.6363  0.0664 -0.1716
 2074TIP3    H133145   0.612   4.904   5.499  0.6768 -1.9915 -1.3064
 2074TIP3    H233146   0.741   4.895   5.421  1.8070 -0.7080  0.3231
 2075TIP3   OH233147   0.334   5.003   0.216  0.0049  0.7494  0.5664
 2075TIP3    H133148   0.283   4.992   0.136 -1.8142  0.7165  1.6524
 2075TIP3    H233149   0.306   4.931   0.273  2.8863 -0.5443  0.4964
 2076TIP3   OH233150   2.937   2.165   5.040  0.4971 -0.9999  0.0436
 2076TIP3    H133151   2.845   2.140   5.035  0.2266 -0.8123  2.6275
 2076TIP3    H233152   2.935   2.260   5.057  1.2619 -0.5782 -2.0133
 2077TIP3   OH233153   2.969   0.657   1.678  0.1510  0.1607 -0.5497
 2077TIP3    H133154   3.042   0.604   1.646 -1.9933 -1.4713 -3.2260
 2077TIP3    H233155   2.948   0.620   1.764  1.5756 -0.2166 -0.3393
 2078TIP3   OH233156   8.204   6.319   0.315  0.1570 -0.0782 -0.5128
 2078TIP3    H133157   8.169   6.240   0.273  0.4279 -0.2779 -0.3628
 2078TIP3    H233158   8.187   6.388   0.251 -2.2685  0.2067  0.3419
 2079TIP3   OH233159   7.915   6.753   6.118 -0.0844 -0.0436  0.8595
 2079TIP3    H133160   7.964   6.686   6.070  2.1671  1.9297  0.2160
 2079TIP3    H233161   7.926   6.730   6.210  1.3302 -0.1733  0.6797
 2080TIP3   OH233162   8.364   5.929   0.258  0.0749  0.3871 -0.5378
 2080TIP3    H133163   8.433   5.975   0.305  1.3073 -0.7048 -1.1937
 2080TIP3    H233164   8.285   5.945   0.309  0.1848  3.9876 -1.2264
 2081TIP3   OH233165   1.967   3.960   6.414  0.5327  0.0531 -0.3050
 2081TIP3    H133166   2.031   3.907   6.366  0.1793  0.5857 -1.3966
 2081TIP3    H233167   1.934   3.902   6.482 -0.9645 -1.6917 -2.3995
 2082TIP3   OH233168   1.925   4.619   1.439 -0.3204 -0.2310  0.9597
 2082TIP3    H133169   1.938   4.672   1.518 -1.8766  1.4169  0.1741
 2082TIP3    H233170   1.834   4.634   1.415 -0.0687 -1.2259 -0.7893
 2083TIP3   OH233171   4.247   1.207   0.759  0.9327 -0.2791 -0.6196
 2083TIP3    H133172   4.308   1.158   0.704  2.5091 -1.4910  1.9853
 2083TIP3    H233173   4.291   1.214   0.844 -0.9332  2.2942  0.2968
 2084TIP3   OH233174   0.824   6.013   6.259  0.1522  0.2612 -0.1530
 2084TIP3    H133175   0.896   5.952   6.273  1.0023  1.1792 -0.4304
 2084TIP3    H233176   0.778   6.016   6.343  0.2735 -0.5270 -0.0504
 2085TIP3   OH233177   3.838   5.085   0.897  0.7503 -0.4042  0.7004
 2085TIP3    H133178   3.924   5.076   0.855  0.3397  2.3668 -0.9542
 2085TIP3    H233179   3.777   5.041   0.838  0.7718 -0.6791  0.8804
 2086TIP3   OH233180   2.238   1.771   6.394  0.2389  0.7183  0.0038
 2086TIP3    H133181   2.203   1.716   6.464  1.7959  1.1430  1.1769
 2086TIP3    H233182   2.313   1.722   6.360  0.1661  1.0260 -0.6304
 2087TIP3   OH233183   2.548   7.676   6.019  0.3550 -0.3546 -0.1883
 2087TIP3    H133184   2.517   7.754   6.065  1.2653 -0.7858  1.2452
 2087TIP3    H233185   2.625   7.704   5.971  0.6386 -0.3420  0.2677
 2088TIP3   OH233186   5.680   4.748   0.787  0.2829 -0.2052  0.2034
 2088TIP3    H133187   5.638   4.721   0.868 -1.7078 -0.3797 -0.8300
 2088TIP3    H233188   5.659   4.841   0.779  1.4334  0.0916  0.4151
 2089TIP3   OH233189   5.593   5.904   0.105 -0.0497 -0.5841 -0.0564
 2089TIP3    H133190   5.549   5.945   0.180  0.2835  0.3137 -0.3343
 2089TIP3    H233191   5.542   5.933   0.029  0.2636 -0.5860 -0.2682
 2090TIP3   OH233192   0.202   7.117   6.794 -0.4694 -0.1838  0.5323
 2090TIP3    H133193   0.232   7.113   6.704 -1.1177 -2.3324  0.3641
 2090TIP3    H233194   0.129   7.180   6.792  0.0010  0.3538 -0.2550
 2091TIP3   OH233195   1.998   4.083   5.488 -0.0275 -0.2709  0.3259
 2091TIP3    H133196   1.948   4.064   5.567 -1.5302  0.8100 -0.3208
 2091TIP3    H233197   2.070   4.138   5.517 -0.5312  0.0629  0.9550
 2092TIP3   OH233198   7.760   3.623   5.778  0.6046 -0.2781  0.2101
 2092TIP3    H133199   7.808   3.674   5.712 -0.2145  1.5439  0.9325
 2092TIP3    H233200   7.774   3.532   5.753 -0.3373  0.3020 -3.0210
 2093TIP3   OH233201   0.492   3.829   0.653  0.4538  0.2667 -0.5917
 2093TIP3    H133202   0.422   3.885   0.688  0.1621  0.2024 -1.0635
 2093TIP3    H233203   0.482   3.746   0.699  0.1764  0.2363 -0.7041
 2094TIP3   OH233204   0.405   2.685   0.150 -1.1275  0.1425 -0.4168
 2094TIP3    H133205   0.421   2.594   0.127 -1.1162  0.0473 -0.0370
 2094TIP3    H233206   0.487   2.729   0.128 -0.2454 -0.3637  1.6001
 2095TIP3   OH233207   4.289   8.339   6.360 -0.2452  0.1232  0.2853
 2095TIP3    H133208   4.330   8.274   6.304 -0.1113 -0.1133  0.6523
 2095TIP3    H233209   4.358   8.402   6.380  0.3332 -0.9576  1.9479
 2096TIP3   OH233210   3.767   1.108   0.938 -0.9042 -0.0426  0.3574
 2096TIP3    H133211   3.831   1.140   0.874 -1.2933 -0.2669 -0.1497
 2096TIP3    H233212   3.696   1.070   0.885 -0.7196 -1.2459  0.9262
 2097TIP3   OH233213   6.488   6.982   0.547  0.0917  0.2014 -0.1664
 2097TIP3    H133214   6.502   6.891   0.520 -1.1474  0.2382 -0.9954
 2097TIP3    H233215   6.430   6.976   0.623  0.8107  0.2695  0.4025
 2098TIP3   OH233216   7.438   7.428   1.695  0.2822  0.1802  0.1937
 2098TIP3    H133217   7.527   7.394   1.709  0.1851  0.1623  0.7901
 2098TIP3    H233218   7.386   7.387   1.764 -0.9948 -2.7512 -2.3125
 2099TIP3   OH233219   7.355   3.674   1.772 -0.5456  0.7300  0.1775
 2099TIP3    H133220   7.308   3.591   1.781 -1.2621  1.1932  0.9307
 2099TIP3    H233221   7.437   3.660   1.820 -0.4183  0.2839 -0.1646
 2100TIP3   OH233222   0.221   4.405   5.929  0.0561  0.0758  0.3304
 2100TIP3    H133223   0.296   4.347   5.914  0.6074  0.6333  0.8718
 2100TIP3    H233224   0.254   4.493   5.909  0.3879  0.6802  3.1265
 2101TIP3   OH233225   3.408   4.021   0.208  0.6225  0.0076 -0.7327
 2101TIP3    H133226   3.413   4.112   0.237  0.2449 -0.3258  0.4135
 2101TIP3    H233227   3.498   3.990   0.208  0.7214  0.3020 -0.8408
 2102TIP3   OH233228   1.140   7.676   0.225 -0.3460 -0.0645 -0.1686
 2102TIP3    H133229   1.152   7.619   0.301 -1.0569  0.5286  0.4039
 2102TIP3    H233230   1.198   7.750   0.241 -0.7524  0.2273 -0.0272
 2103TIP3   OH233231   3.459   3.304   6.998  0.3085  0.6767  0.1243
 2103TIP3    H133232   3.403   3.355   7.056 -2.0127  0.3159 -1.6739
 2103TIP3    H233233   3.455   3.215   7.034 -0.5539  0.5904 -0.1711
 2104TIP3   OH233234   0.260   3.469   0.533 -0.0507 -0.1408  0.5824
 2104TIP3    H133235   0.307   3.501   0.456 -1.5387  1.3412  0.2310
 2104TIP3    H233236   0.258   3.373   0.522  0.7482 -0.0419 -0.6088
 2105TIP3   OH233237   4.895   1.189   1.139  0.0646 -0.4220  0.6231
 2105TIP3    H133238   4.984   1.152   1.144  0.0611 -0.4759  0.2422
 2105TIP3    H233239   4.881   1.227   1.226  0.5240 -0.2728  0.6344
 2106TIP3   OH233240   7.057   4.685   1.180 -0.1058 -0.1315  0.2481
 2106TIP3    H133241   7.000   4.757   1.155  3.0012  2.8699  1.1438
 2106TIP3    H233242   7.078   4.642   1.097 -0.8247  0.9134 -0.5109
 2107TIP3   OH233243   2.385   2.152   1.714  0.1359  0.2125 -0.0661
 2107TIP3    H133244   2.380   2.239   1.675 -1.9392 -0.1882 -0.7981
 2107TIP3    H233245   2.408   2.168   1.805  2.1694  1.3437 -0.6970
 2108TIP3   OH233246   3.378   3.798   5.575  0.0085  0.4357  0.2697
 2108TIP3    H133247   3.442   3.792   5.645 -0.8403  0.7947  1.0960
 2108TIP3    H233248   3.431   3.806   5.495  0.9835  0.7390  0.9249
 2109TIP3   OH233249   4.459   3.500   0.112 -0.2482 -0.1954  0.0487
 2109TIP3    H133250   4.524   3.539   0.054  2.3817 -0.2788  2.6842
 2109TIP3    H233251   4.450   3.410   0.081 -2.1969  0.7930 -2.6943
 2110TIP3   OH233252   7.831   1.627   0.234 -0.0130  0.1081  0.4075
 2110TIP3    H133253   7.917   1.598   0.264 -0.3172 -0.2403  0.9495
 2110TIP3    H233254   7.829   1.604   0.141 -0.4668 -2.1564  0.9304
 2111TIP3   OH233255   3.994   2.456   6.964 -0.3727  1.0773  0.0187
 2111TIP3    H133256   4.031   2.489   6.882  3.2739 -1.7790  0.2204
 2111TIP3    H233257   4.049   2.494   7.033  0.2695 -0.7806  0.6148
 2112TIP3   OH233258   6.222   0.855   6.075  0.4258 -0.1037 -0.5393
 2112TIP3    H133259   6.210   0.824   6.165 -2.3998  0.8708 -0.4540
 2112TIP3    H233260   6.247   0.777   6.026 -1.2758 -1.4318  0.5601
 2113TIP3   OH233261   8.394   3.715   6.664 -0.3312  0.2686  0.2342
 2113TIP3    H133262   8.482   3.690   6.634 -0.4038 -2.1310  1.8167
 2113TIP3    H233263   8.400   3.810   6.676  1.9875  0.2014  0.1210
 2114TIP3   OH233264   2.914   1.164   0.417  0.2042 -0.4823 -0.5088
 2114TIP3    H133265   2.963   1.095   0.463 -0.5316  0.7611  2.3567
 2114TIP3    H233266   2.982   1.220   0.379  0.8851 -1.1401 -0.2773
 2115TIP3   OH233267   7.291   3.468   1.178 -0.6141  0.4647  0.3572
 2115TIP3    H133268   7.305   3.495   1.269 -0.3629 -0.0751  0.4827
 2115TIP3    H233269   7.325   3.542   1.127 -0.2726  0.5521  0.6990
 2116TIP3   OH233270   6.249   5.197   0.094  0.4041  0.1187  0.3354
 2116TIP3    H133271   6.314   5.233   0.034 -0.1656  0.7438  0.0708
 2116TIP3    H233272   6.204   5.274   0.130 -1.9123 -0.2791 -1.4247
 2117TIP3   OH233273   4.730   2.495   0.123 -0.2271 -0.0266  0.0002
 2117TIP3    H133274   4.814   2.494   0.169 -2.0461  1.1053  3.7675
 2117TIP3    H233275   4.704   2.403   0.120  0.8377 -0.3170 -0.5828
 2118TIP3   OH233276   7.639   5.640   5.996 -0.1695  0.5868 -0.5054
 2118TIP3    H133277   7.590   5.714   5.959  0.8493  0.4235 -2.2905
 2118TIP3    H233278   7.731   5.665   5.988  0.1382 -0.1527  0.5090
 2119TIP3   OH233279   4.804   4.364   0.882  0.3776 -0.3029  0.3909
 2119TIP3    H133280   4.724   4.406   0.850  0.3872  0.4019  1.2409
 2119TIP3    H233281   4.809   4.281   0.834  0.0408  0.3954 -0.8990
 2120TIP3   OH233282   7.187   5.658   0.250  0.2150  0.1507 -0.3688
 2120TIP3    H133283   7.261   5.598   0.239 -0.1304 -1.0200  2.8511
 2120TIP3    H233284   7.109   5.602   0.244 -0.1590  0.4307  1.3892
 2121TIP3   OH233285   5.204   4.947   6.330  0.0946  0.9282 -0.4730
 2121TIP3    H133286   5.295   4.975   6.318  0.2960  0.5180  0.0405
 2121TIP3    H233287   5.194   4.938   6.425 -0.7472  1.8090 -0.4653
 2122TIP3   OH233288   1.667   6.929   5.994 -0.0447 -0.4663  0.0703
 2122TIP3    H133289   1.666   6.912   5.899 -0.9472 -1.7361  0.2821
 2122TIP3    H233290   1.669   7.024   6.001  2.9571 -0.3207 -1.2131
 2123TIP3   OH233291   1.738   1.959   0.689  0.1771 -0.0091  0.5786
 2123TIP3    H133292   1.723   1.959   0.594 -1.0253 -1.6116  0.7325
 2123TIP3    H233293   1.833   1.956   0.698  0.3042  0.0480 -0.5720
 2124TIP3   OH233294   5.141   3.809   5.940  0.3270  0.1678 -1.2304
 2124TIP3    H133295   5.226   3.823   5.980  0.2090 -2.0166 -0.0245
 2124TIP3    H233296   5.110   3.896   5.916  0.5765  1.7345  3.1980
 2125TIP3   OH233297   1.641   3.494   5.333  0.0599  0.2944  0.7585
 2125TIP3    H133298   1.716   3.438   5.352  1.4930  2.0692  0.5924
 2125TIP3    H233299   1.678   3.582   5.327 -1.9005  1.1083 -0.2421
 2126TIP3   OH233300   5.066   2.765   6.411  0.0915 -0.0235 -0.2602
 2126TIP3    H133301   5.139   2.706   6.394 -1.1517 -1.5425 -0.5285
 2126TIP3    H233302   5.057   2.765   6.506  1.5169  1.5746 -0.0801
 2127TIP3   OH233303   4.452   2.908   0.001 -0.1587  0.4697 -0.4257
 2127TIP3    H133304   4.376   2.934   0.053 -1.0026 -0.7842 -0.9852
 2127TIP3    H233305   4.493   2.838   0.051  0.2536  0.6970 -0.4413
 2128TIP3   OH233306   5.786   7.302   0.619  0.0136 -0.8102  0.2756
 2128TIP3    H133307   5.843   7.322   0.544  0.6526 -1.2033  0.6435
 2128TIP3    H233308   5.708   7.264   0.580 -0.2165  0.1776 -0.2757
 2129TIP3   OH233309   2.644   6.941   0.023  0.4407  0.1893 -0.3689
 2129TIP3    H133310   2.574   7.006   0.032  1.0501  0.8535 -0.3255
 2129TIP3    H233311   2.608   6.861   0.063 -0.5404  0.3234 -0.9624
 2130TIP3   OH233312   0.832   7.771   0.482  0.2804 -0.5585 -0.3259
 2130TIP3    H133313   0.795   7.790   0.569 -3.5978 -0.3801 -1.8132
 2130TIP3    H233314   0.828   7.675   0.475 -1.8524 -0.4716 -1.1224
 2131TIP3   OH233315   7.259   5.965   5.628 -0.0645  0.4235  0.5549
 2131TIP3    H133316   7.295   5.876   5.631 -0.1052  0.4266  1.4917
 2131TIP3    H233317   7.199   5.964   5.554  2.0982  0.5214 -1.3061
 2132TIP3   OH233318   1.325   3.442   6.996  0.2188  0.0404  0.5153
 2132TIP3    H133319   1.390   3.503   7.033 -0.3625  1.0239 -0.0423
 2132TIP3    H233320   1.373   3.393   6.929  0.1707  1.4733 -0.6163
 2133TIP3   OH233321   3.079   0.201   5.864  0.1438  0.0388 -0.7304
 2133TIP3    H133322   3.106   0.266   5.929  1.2842 -1.4466  0.3493
 2133TIP3    H233323   2.985   0.191   5.878  0.3879 -0.3383  0.8014
 2134TIP3   OH233324   4.189   7.432   0.179  0.5452  0.3365  0.0795
 2134TIP3    H133325   4.244   7.499   0.220 -1.5952  1.1398  1.8128
 2134TIP3    H233326   4.171   7.468   0.092 -0.6732  2.1661  1.0153
 2135TIP3   OH233327   6.009   5.310   1.740 -0.2789  0.1274  0.1731
 2135TIP3    H133328   6.075   5.311   1.671 -1.1116  0.4102 -0.6307
 2135TIP3    H233329   6.044   5.368   1.808 -0.2536  1.2704 -0.7840
 2136TIP3   OH233330   6.760   3.450   5.873 -0.0032 -0.1342 -0.0260
 2136TIP3    H133331   6.675   3.473   5.911 -0.4590  1.0681 -1.6137
 2136TIP3    H233332   6.772   3.514   5.803  3.2558  1.1279  1.5126
 2137TIP3   OH233333   2.402   5.011   5.803 -0.0222 -0.2216 -1.0400
 2137TIP3    H133334   2.488   4.977   5.829  0.1402 -0.4351 -1.8097
 2137TIP3    H233335   2.413   5.106   5.802 -0.1997 -0.1688  0.1868
 2138TIP3   OH233336   1.460   1.033   6.475  0.2027  0.5659 -0.0957
 2138TIP3    H133337   1.482   1.096   6.544 -0.7257 -0.2898  1.0061
 2138TIP3    H233338   1.434   1.087   6.401 -1.4191  1.5178  1.1001
 2139TIP3   OH233339   7.357   3.698   0.587 -0.2853  0.0505 -1.0368
 2139TIP3    H133340   7.408   3.689   0.667  0.2887  1.1031 -1.2641
 2139TIP3    H233341   7.406   3.648   0.521 -0.9772 -1.1650 -0.6598
 2140TIP3   OH233342   1.267   2.927   5.107 -0.3701  0.1134  0.6360
 2140TIP3    H133343   1.263   3.008   5.158  2.2779  0.4160  0.5199
 2140TIP3    H233344   1.343   2.880   5.143 -0.5302 -1.2993 -0.7608
 2141TIP3   OH233345   3.610   2.367   6.154 -0.1790 -0.5673  0.2049
 2141TIP3    H133346   3.655   2.298   6.203  1.8699  0.0731 -0.6436
 2141TIP3    H233347   3.629   2.447   6.204  1.6017  0.0356 -1.3155
 2142TIP3   OH233348   3.100   4.759   5.818 -0.2376 -0.8854  0.2972
 2142TIP3    H133349   3.162   4.687   5.810  0.2410 -0.4999  0.4617
 2142TIP3    H233350   3.155   4.837   5.830 -0.7739 -0.7281  1.9677
 2143TIP3   OH233351   1.841   3.670   5.987 -0.0250 -0.3159 -0.3267
 2143TIP3    H133352   1.915   3.712   6.030 -0.2988 -0.1028 -0.0599
 2143TIP3    H233353   1.880   3.612   5.922  0.3662  0.5029 -0.8398
 2144TIP3   OH233354   7.706   8.183   5.670  0.4641  0.2052 -0.3450
 2144TIP3    H133355   7.736   8.271   5.647  1.4299 -0.7549 -3.3121
 2144TIP3    H233356   7.611   8.187   5.659  0.4703  0.9493 -0.1734
 2145TIP3   OH233357   4.557   0.471   0.358 -0.1913 -0.3321 -0.2847
 2145TIP3    H133358   4.543   0.487   0.264 -0.7599 -0.6887 -0.2621
 2145TIP3    H233359   4.539   0.555   0.399  0.3383 -0.0968 -0.5176
 2146TIP3   OH233360   6.364   3.394   0.678 -0.3091  0.2093  0.4815
 2146TIP3    H133361   6.304   3.368   0.748  0.3489 -1.5920  0.4220
 2146TIP3    H233362   6.307   3.421   0.606 -1.0517 -1.0050  0.5958
 2147TIP3   OH233363   6.180   7.087   5.282  0.2871 -0.4082 -0.1210
 2147TIP3    H133364   6.231   7.033   5.222 -1.3127 -0.4303 -1.5265
 2147TIP3    H233365   6.095   7.043   5.288  0.2097 -0.1076  1.7655
 2148TIP3   OH233366   6.561   5.428   0.510 -0.3298 -0.5666 -0.2693
 2148TIP3    H133367   6.482   5.452   0.462 -0.9810  0.4500  1.2171
 2148TIP3    H233368   6.575   5.501   0.571  2.7441  0.1199 -1.6180
 2149TIP3   OH233369   8.316   2.224   6.856  0.0555 -0.2966  0.1147
 2149TIP3    H133370   8.310   2.193   6.766  1.1704 -0.7964  0.1909
 2149TIP3    H233371   8.228   2.253   6.878 -0.4301 -1.0176 -0.8321
 2150TIP3   OH233372   4.706   7.874   0.461  0.5711  0.2143  0.0155
 2150TIP3    H133373   4.620   7.831   0.465  1.4178 -1.5236  0.3484
 2150TIP3    H233374   4.719   7.909   0.549  0.0153  0.8820 -0.1629
 2151TIP3   OH233375   6.666   2.848   0.663 -0.1526 -0.3858 -0.0380
 2151TIP3    H133376   6.657   2.943   0.661  1.8827 -0.0526  2.1183
 2151TIP3    H233377   6.753   2.833   0.700 -0.3807 -3.1101 -0.3848
 2152TIP3   OH233378   6.393   6.344   6.514  0.4121  0.3094 -0.8059
 2152TIP3    H133379   6.421   6.254   6.496  0.5231 -0.1634  1.4556
 2152TIP3    H233380   6.302   6.348   6.482 -0.0010 -0.9960  0.1260
 2153TIP3   OH233381   7.323   3.542   6.310  0.6489 -0.6008 -0.0787
 2153TIP3    H133382   7.355   3.624   6.348  1.1314  0.1729 -2.0333
 2153TIP3    H233383   7.234   3.533   6.343  0.6014  0.7024  0.1959
 2154TIP3   OH233384   8.125   6.018   6.903 -0.3896  0.1934  0.2959
 2154TIP3    H133385   8.199   6.072   6.933 -1.3523  2.3642 -0.9788
 2154TIP3    H233386   8.165   5.951   6.848  0.7131  0.8794  0.2206
 2155TIP3   OH233387   2.609   4.206   5.980 -0.4534 -0.3576 -0.5566
 2155TIP3    H133388   2.640   4.160   6.058 -0.5369 -0.8856 -0.8325
 2155TIP3    H233389   2.676   4.272   5.963  1.0869 -2.1116 -1.7358
 2156TIP3   OH233390   3.491   6.180   0.012  0.0420  0.1341 -0.0971
 2156TIP3    H133391   3.455   6.147   0.095  0.3215 -0.8182 -0.3481
 2156TIP3    H233392   3.471   6.112   7.019  2.0295 -0.2997 -0.3091
 2157TIP3   OH233393   2.269   5.068   0.431  0.3872 -0.0331  0.4291
 2157TIP3    H133394   2.225   5.036   0.352  0.3202  0.1225  0.4024
 2157TIP3    H233395   2.275   4.991   0.488  0.5712 -0.1776  0.2119
 2158TIP3   OH233396   4.018   8.198   5.456 -0.2472  0.1698 -0.3391
 2158TIP3    H133397   4.079   8.245   5.399 -2.1537  2.5836 -0.5412
 2158TIP3    H233398   4.071   8.174   5.533  1.3706  0.5517 -1.2874
 2159TIP3   OH233399   8.411   3.136   6.715 -0.3962 -0.1318 -0.0042
 2159TIP3    H133400   8.406   3.106   6.806 -2.9923 -0.9749 -0.3543
 2159TIP3    H233401   8.470   3.072   6.673  1.8840  1.0057  1.2555
 2160TIP3   OH233402   0.766   1.605   1.664  0.3068  0.2448  0.2889
 2160TIP3    H133403   0.703   1.656   1.714  1.4773  1.0790  0.9526
 2160TIP3    H233404   0.803   1.668   1.602  1.5864  0.1481  0.9422
 2161TIP3   OH233405   2.454   2.388   6.051 -0.2213 -0.0827  0.0613
 2161TIP3    H133406   2.531   2.393   6.107  0.7649  1.1108 -1.3433
 2161TIP3    H233407   2.481   2.335   5.977 -0.2810  1.3922 -1.0704
 2162TIP3   OH233408   2.544   4.769   4.559  0.2345  0.0560  0.2847
 2162TIP3    H133409   2.566   4.808   4.475 -3.0139  0.4472 -0.5482
 2162TIP3    H233410   2.514   4.842   4.613 -1.2525 -0.6129  0.4216
 2163TIP3   OH233411   0.123   4.693   1.537  0.2164  0.2307 -0.5880
 2163TIP3    H133412   0.122   4.773   1.484 -2.7989 -0.3574 -1.6599
 2163TIP3    H233413   0.043   4.699   1.590  0.5795 -1.4906  0.2371
 2164TIP3   OH233414   6.814   4.557   0.732  0.5527  0.2234 -1.1010
 2164TIP3    H133415   6.782   4.472   0.702 -0.6351  0.1319  0.3120
 2164TIP3    H233416   6.764   4.574   0.812  1.7159  1.6527 -0.6495
 2165TIP3   OH233417   2.394   0.560   1.095  0.3700  0.0790 -0.4729
 2165TIP3    H133418   2.459   0.631   1.100  0.2984  0.0593  1.6754
 2165TIP3    H233419   2.321   0.591   1.149  0.1711 -1.4469  0.1747
 2166TIP3   OH233420   4.679   3.947   5.563 -0.1218  0.5573  0.0276
 2166TIP3    H133421   4.745   4.016   5.560  0.8084 -0.3338 -1.3322
 2166TIP3    H233422   4.627   3.961   5.483  0.0138 -0.2374 -0.2097
 2167TIP3   OH233423   8.045   4.479   6.312  0.6287  0.2209 -0.5406
 2167TIP3    H133424   8.037   4.479   6.407  1.7959  0.0738 -0.4337
 2167TIP3    H233425   7.976   4.419   6.282 -0.1011  0.6847  0.1582
 2168TIP3   OH233426   2.874   1.086   6.280  0.4718  0.4136 -0.1349
 2168TIP3    H133427   2.815   1.109   6.352  0.3141 -2.7036  0.8813
 2168TIP3    H233428   2.821   1.098   6.201  0.2857  2.7972  0.2644
 2169TIP3   OH233429   1.472   2.679   6.035  1.0711  0.2258  0.0363
 2169TIP3    H133430   1.385   2.708   6.007 -0.0776 -1.0785  1.9877
 2169TIP3    H233431   1.527   2.691   5.958 -0.6840  1.6775 -1.0786
 2170TIP3   OH233432   7.419   0.207   6.723 -0.5207  0.0656 -0.0144
 2170TIP3    H133433   7.370   0.273   6.675  0.5372  0.9203  0.0390
 2170TIP3    H233434   7.509   0.217   6.692 -0.1160 -0.4759  0.9517
 2171TIP3   OH233435   2.227   6.710   2.075  1.2131  0.1745 -0.0241
 2171TIP3    H133436   2.235   6.665   1.990  2.0200 -0.3303  0.3085
 2171TIP3    H233437   2.272   6.652   2.136  2.0712  1.3401  0.4620
 2172TIP3   OH233438   0.979   6.015   6.575 -0.1463 -0.4926 -0.3573
 2172TIP3    H133439   0.887   6.030   6.598 -0.2914 -1.1259 -0.5013
 2172TIP3    H233440   0.985   5.920   6.560  0.3573 -0.3518 -1.0929
 2173TIP3   OH233441   5.642   0.179   0.953 -0.0085  0.3646 -0.2438
 2173TIP3    H133442   5.698   0.164   1.029 -2.3536 -0.1063  1.5070
 2173TIP3    H233443   5.651   0.273   0.936 -0.3656  0.7456  1.4443
 2174TIP3   OH233444   7.667   2.537   6.585  0.5763 -0.1461 -0.3906
 2174TIP3    H133445   7.618   2.532   6.667 -0.9061 -0.5209 -1.2627
 2174TIP3    H233446   7.691   2.629   6.577 -0.6267  0.1846 -0.3046
 2175TIP3   OH233447   2.735   0.397   6.375  0.7797 -0.0208 -0.7140
 2175TIP3    H133448   2.698   0.474   6.419 -0.1193 -0.5811 -0.4582
 2175TIP3    H233449   2.819   0.427   6.340  0.5699  0.9974 -0.3764
 2176TIP3   OH233450   2.820   5.509   7.023  0.2600 -0.3163  0.1617
 2176TIP3    H133451   2.754   5.520   6.955  1.0324 -2.9237 -1.1141
 2176TIP3    H233452   2.887   5.574   7.002 -0.1948 -0.1047 -0.6747
 2177TIP3   OH233453   5.623   3.062   1.024  0.1005  0.0216 -0.0409
 2177TIP3    H133454   5.550   3.124   1.015 -0.1709 -0.1927  0.6183
 2177TIP3    H233455   5.595   3.002   1.093  0.1654 -1.1151 -0.9651
 2178TIP3   OH233456   6.597   7.058   6.010 -0.0634 -0.0935 -0.4013
 2178TIP3    H133457   6.513   7.050   6.054  0.0074  1.2200 -0.0019
 2178TIP3    H233458   6.603   6.979   5.956 -0.8107 -1.0037  0.7938
 2179TIP3   OH233459   7.293   3.151   5.703  0.0740  0.1302 -0.3047
 2179TIP3    H133460   7.312   3.180   5.792  1.7665  0.9296 -0.8939
 2179TIP3    H233461   7.262   3.229   5.658  0.7678  0.1112 -0.8331
 2180TIP3   OH233462   5.306   8.229   6.854 -0.0277  0.0508 -0.0633
 2180TIP3    H133463   5.371   8.289   6.891  0.5541 -0.2172 -0.6403
 2180TIP3    H233464   5.338   8.208   6.767 -1.0051  0.0813 -0.4470
 2181TIP3   OH233465   7.042   7.367   5.025 -0.2230  0.0286 -0.0322
 2181TIP3    H133466   6.952   7.335   5.032 -0.9694  1.3962 -2.2888
 2181TIP3    H233467   7.040   7.455   5.062  0.3809 -0.1945  0.5544
 2182TIP3   OH233468   1.634   5.389   0.905 -0.1097  0.5653  0.1117
 2182TIP3    H133469   1.624   5.471   0.953 -0.0138  0.3819  0.4507
 2182TIP3    H233470   1.550   5.376   0.862 -0.8897 -0.2427  1.7921
 2183TIP3   OH233471   4.245   1.328   5.941 -0.0804  0.3693  0.3820
 2183TIP3    H133472   4.255   1.284   5.856 -0.5172 -1.9172  1.4251
 2183TIP3    H233473   4.195   1.407   5.921 -0.4812 -0.2885 -1.4467
 2184TIP3   OH233474   5.701   2.862   6.507  0.2242  0.5286 -0.1759
 2184TIP3    H133475   5.742   2.938   6.548  0.5572  0.9107 -1.1749
 2184TIP3    H233476   5.616   2.854   6.550  0.3956  1.1679  0.2863
 2185TIP3   OH233477   5.341   5.375   0.417  0.2693 -0.5645  0.6814
 2185TIP3    H133478   5.287   5.421   0.353 -0.0843 -0.2884  1.1672
 2185TIP3    H233479   5.430   5.383   0.383  0.0510 -0.7216  0.0544
 2186TIP3   OH233480   7.558   4.913   5.438  0.2541  0.2492  0.4251
 2186TIP3    H133481   7.597   4.970   5.372  0.0653 -1.7437 -1.5191
 2186TIP3    H233482   7.570   4.824   5.404 -2.0119 -0.7233  1.8811
 2187TIP3   OH233483   5.383   6.561   0.518  0.0872 -0.1466  0.0776
 2187TIP3    H133484   5.388   6.481   0.465 -2.0668 -0.0590 -0.3581
 2187TIP3    H233485   5.293   6.561   0.552 -0.2256  2.4778 -0.5758
 2188TIP3   OH233486   2.430   3.486   6.303 -0.4863  0.0748 -0.0028
 2188TIP3    H133487   2.447   3.402   6.262 -1.4937  0.2751 -0.8722
 2188TIP3    H233488   2.390   3.539   6.234  0.5825  1.4436  0.3765
 2189TIP3   OH233489   0.112   1.266   6.805  0.0812 -0.0867 -0.0363
 2189TIP3    H133490   0.060   1.218   6.741  0.1733 -0.5330  0.2199
 2189TIP3    H233491   0.088   1.358   6.792 -0.5528 -0.2584 -0.1151
 2190TIP3   OH233492   6.168   8.356   0.224 -0.3008  0.2035 -0.0743
 2190TIP3    H133493   6.155   8.272   0.269  3.1216 -2.2485 -3.1109
 2190TIP3    H233494   6.239   8.398   0.273  0.7068 -0.6108 -0.7928
 2191TIP3   OH233495   6.733   6.579   6.984 -0.4426  0.3230 -0.3122
 2191TIP3    H133496   6.822   6.552   7.009 -1.4346 -0.4844  2.7986
 2191TIP3    H233497   6.734   6.674   6.994 -0.2221  0.2074  0.9526
 2192TIP3   OH233498   7.957   4.902   6.918  0.1651 -0.4445  0.4072
 2192TIP3    H133499   8.033   4.947   6.955 -1.0279  1.8666  0.2263
 2192TIP3    H233500   7.974   4.899   6.824  0.4198 -0.7357  0.4606
 2193TIP3   OH233501   5.622   8.028   0.781 -0.0477 -0.3569  0.7372
 2193TIP3    H133502   5.707   8.072   0.775 -0.1896 -0.2376 -1.0522
 2193TIP3    H233503   5.593   8.021   0.690 -1.4048 -1.4821  1.2272
 2194TIP3   OH233504   0.768   3.433   6.003  0.4852 -0.6381  0.1377
 2194TIP3    H133505   0.771   3.360   5.941 -0.1468 -1.7232  1.3542
 2194TIP3    H233506   0.695   3.412   6.061 -0.0239  1.2129  0.2259
 2195TIP3   OH233507   1.866   5.707   5.641 -0.7182  0.0693  0.6873
 2195TIP3    H133508   1.854   5.778   5.703 -0.2101 -0.6837  1.6825
 2195TIP3    H233509   1.814   5.732   5.564 -0.7356  1.3759  1.1127
 2196TIP3   OH233510   1.407   5.563   1.965 -0.0389  0.0772  0.1156
 2196TIP3    H133511   1.412   5.653   1.930 -3.3999  0.0258 -0.9147
 2196TIP3    H233512   1.464   5.512   1.908  0.5150  1.2702 -0.4426
 2197TIP3   OH233513   7.172   0.884   5.310  0.1851 -0.2093  0.1092
 2197TIP3    H133514   7.078   0.900   5.314  0.1545  0.6785 -2.6051
 2197TIP3    H233515   7.180   0.790   5.297 -0.3057 -0.2806  0.3013
 2198TIP3   OH233516   7.146   1.167   1.682 -0.2040 -0.1378 -0.7580
 2198TIP3    H133517   7.122   1.259   1.672  2.1214  1.1338  2.9514
 2198TIP3    H233518   7.075   1.129   1.732  0.4599  0.7592  0.9658
 2199TIP3   OH233519   6.753   8.522   6.381  0.7059 -0.3534 -0.2447
 2199TIP3    H133520   6.746   8.429   6.359  1.5517 -0.4339 -0.2194
 2199TIP3    H233521   6.677   0.004   6.436 -0.9511 -0.3771 -2.3877
 2200TIP3   OH233522   5.228   3.196   2.072 -0.3067  0.1382 -0.1529
 2200TIP3    H133523   5.146   3.149   2.092  0.6746 -1.1103  1.1432
 2200TIP3    H233524   5.206   3.288   2.087 -1.0067 -0.3208  2.0918
 2201TIP3   OH233525   7.093   4.509   0.395 -0.3650 -0.4397  0.4467
 2201TIP3    H133526   7.049   4.591   0.419  0.9922  0.3890  0.2413
 2201TIP3    H233527   7.111   4.466   0.478  0.8954  0.5657  0.7281
 2202TIP3   OH233528   4.685   7.130   1.505  0.1211  0.0794 -0.0699
 2202TIP3    H133529   4.716   7.211   1.466 -1.5005  0.2785 -1.0296
 2202TIP3    H233530   4.615   7.157   1.564 -0.7965 -0.6448 -0.7977
 2203TIP3   OH233531   5.457   1.639   5.902  0.4320  0.0961 -0.4656
 2203TIP3    H133532   5.392   1.693   5.948  0.8287 -0.2099  0.4720
 2203TIP3    H233533   5.534   1.696   5.895  0.7024 -0.1853  0.1354
 2204TIP3   OH233534   3.542   2.793   1.357  0.2529  0.2204  0.4950
 2204TIP3    H133535   3.576   2.882   1.346  1.1939 -0.2278 -0.3268
 2204TIP3    H233536   3.620   2.738   1.367 -0.2793 -0.6477 -0.0205
 2205TIP3   OH233537   7.677   1.895   4.818 -0.4823  0.2318  0.2879
 2205TIP3    H133538   7.594   1.863   4.852 -0.8401  1.0563  0.1902
 2205TIP3    H233539   7.740   1.826   4.841 -1.3496 -0.8713 -0.5097
 2206TIP3   OH233540   1.373   6.513   5.838  0.3129 -0.0754  0.2834
 2206TIP3    H133541   1.401   6.522   5.929 -1.8646  0.4979  0.9411
 2206TIP3    H233542   1.326   6.430   5.835  0.1905  0.0089 -0.2650
 2207TIP3   OH233543   2.533   4.321   1.332 -0.0869 -0.1489 -0.3007
 2207TIP3    H133544   2.466   4.338   1.398  2.9195  0.5122  2.9056
 2207TIP3    H233545   2.558   4.229   1.346  0.9406  0.1456 -0.1486
 2208TIP3   OH233546   1.858   4.880   0.881 -0.0190 -0.2553  1.1074
 2208TIP3    H133547   1.855   4.969   0.917 -3.1565 -1.2241  3.6987
 2208TIP3    H233548   1.901   4.828   0.948  0.1316 -1.0381  0.4229
 2209TIP3   OH233549   4.357   4.185   5.643 -0.2946  0.2591 -0.2913
 2209TIP3    H133550   4.261   4.184   5.646 -0.4688  2.8401 -1.9176
 2209TIP3    H233551   4.379   4.122   5.575 -0.7995 -0.4338  0.1682
 2210TIP3   OH233552   6.385   2.888   0.313  0.3279  0.0955 -0.2412
 2210TIP3    H133553   6.479   2.904   0.307  0.6354 -1.2908  0.5317
 2210TIP3    H233554   6.348   2.974   0.334  1.4923  0.5321  0.1241
 2211TIP3   OH233555   7.685   6.980   2.164 -1.4926  0.2366  0.2045
 2211TIP3    H133556   7.597   6.959   2.133 -0.5763 -1.3780 -1.4962
 2211TIP3    H233557   7.719   6.896   2.195 -0.9440  1.0758  2.0162
 2212TIP3   OH233558   7.855   1.871   1.170 -0.4600 -0.1222 -0.3869
 2212TIP3    H133559   7.829   1.932   1.240 -0.0854  1.7604 -1.8153
 2212TIP3    H233560   7.801   1.896   1.095 -1.4224 -2.6173 -0.6374
 2213TIP3   OH233561   1.148   8.036   0.594  0.3417  0.6582 -0.2789
 2213TIP3    H133562   1.216   7.981   0.557 -0.8762 -2.9475  2.2814
 2213TIP3    H233563   1.068   8.008   0.549 -0.3308  0.0308  1.2322
 2214TIP3   OH233564   3.312   2.860   1.874 -0.2137  0.3798 -0.4009
 2214TIP3    H133565   3.219   2.848   1.853 -1.2357  2.3641  2.4243
 2214TIP3    H233566   3.338   2.777   1.914 -1.6050  0.6553  1.2165
 2215TIP3   OH233567   4.784   6.531   1.927 -0.2951  0.0879 -0.0796
 2215TIP3    H133568   4.854   6.498   1.984  1.1380  2.0062 -0.6328
 2215TIP3    H233569   4.790   6.626   1.934 -0.6177  0.3735 -2.7977
 2216TIP3   OH233570   2.837   0.844   1.990  0.0415  0.9383 -0.6994
 2216TIP3    H133571   2.822   0.818   1.899  0.0732  1.0775 -0.7448
 2216TIP3    H233572   2.880   0.769   2.030 -0.2287  0.7677 -0.7269
 2217TIP3   OH233573   1.530   3.736   0.307 -0.5619  0.6323  0.1044
 2217TIP3    H133574   1.475   3.814   0.315  0.7045  1.4151  2.0884
 2217TIP3    H233575   1.510   3.685   0.386 -0.6014 -0.5536 -0.6523
 2218TIP3   OH233576   1.178   5.544   6.639 -0.1155 -0.1153 -0.1938
 2218TIP3    H133577   1.104   5.582   6.591  0.1109 -0.9632 -1.2643
 2218TIP3    H233578   1.148   5.455   6.662 -0.0047  0.0801  0.7667
 2219TIP3   OH233579   6.565   7.735   6.853 -0.4108  0.1143  0.0021
 2219TIP3    H133580   6.588   7.725   6.945  0.1349 -1.4957 -0.2788
 2219TIP3    H233581   6.471   7.753   6.853 -0.2012  1.3514  0.9087
 2220TIP3   OH233582   6.020   5.304   6.148 -0.0697  0.6849 -0.1793
 2220TIP3    H133583   5.988   5.224   6.106 -0.5689 -0.2276  1.8403
 2220TIP3    H233584   6.048   5.276   6.235  2.5701  2.1800 -0.4410
 2221TIP3   OH233585   3.799   5.420   6.707 -0.5971 -0.0701 -0.0278
 2221TIP3    H133586   3.827   5.398   6.795  2.9243  0.7709 -0.7718
 2221TIP3    H233587   3.836   5.351   6.652  1.0632  1.6168 -1.1885
 2222TIP3   OH233588   7.665   6.640   1.602 -0.1211 -0.0247 -0.1762
 2222TIP3    H133589   7.633   6.638   1.692  0.3239  0.0483 -0.0125
 2222TIP3    H233590   7.602   6.588   1.553  0.3007 -1.1246  0.3995
 2223TIP3   OH233591   7.680   5.458   0.912 -0.2854  0.2050 -0.3034
 2223TIP3    H133592   7.770   5.451   0.880 -0.0048  0.9062  0.3085
 2223TIP3    H233593   7.652   5.546   0.888 -0.6343  0.1693 -0.0428
 2224TIP3   OH233594   7.799   2.891   5.424  0.2905 -0.6570  0.3300
 2224TIP3    H133595   7.723   2.895   5.484 -0.8231 -0.5648 -1.0359
 2224TIP3    H233596   7.802   2.977   5.383  2.0972 -0.1358  1.4348
 2225TIP3   OH233597   5.095   2.503   6.562  0.0054 -0.1112 -0.4120
 2225TIP3    H133598   5.177   2.547   6.541  0.9319 -2.2847 -1.7061
 2225TIP3    H233599   5.073   2.454   6.483 -1.8281 -0.6663  0.3822
 2226TIP3   OH233600   0.642   4.657   5.780 -0.2220  0.1241 -0.8647
 2226TIP3    H133601   0.662   4.751   5.784  0.5849 -0.0517 -0.4883
 2226TIP3    H233602   0.597   4.645   5.697 -0.4841  0.8789 -0.8336
 2227TIP3   OH233603   6.335   2.278   6.333 -0.3923  0.3290  0.1999
 2227TIP3    H133604   6.242   2.265   6.354 -0.1995 -0.7565  0.4262
 2227TIP3    H233605   6.379   2.283   6.418 -0.1501  0.0894  0.0904
 2228TIP3   OH233606   2.066   6.790   1.078 -0.8984 -0.7804 -0.1254
 2228TIP3    H133607   2.001   6.731   1.117  0.2045 -0.6229  2.0982
 2228TIP3    H233608   2.149   6.746   1.089 -0.1271  0.8409  0.9939
 2229TIP3   OH233609   2.644   6.042   1.642 -0.6808  0.3015  0.5052
 2229TIP3    H133610   2.615   6.132   1.658  0.9420  0.9064  0.3492
 2229TIP3    H233611   2.739   6.046   1.657 -0.6564 -1.5173  1.0023
 2230TIP3   OH233612   7.935   4.983   0.536  0.6878 -0.5354 -0.3478
 2230TIP3    H133613   7.886   4.924   0.593 -1.0395  0.7902 -0.3587
 2230TIP3    H233614   7.924   5.069   0.576  1.5080  0.0634 -1.3565
 2231TIP3   OH233615   7.027   8.196   0.378 -0.3338  0.3802  0.0962
 2231TIP3    H133616   7.119   8.200   0.354 -0.3916 -1.0021 -0.4399
 2231TIP3    H233617   7.027   8.173   0.471 -0.1492  1.4373  0.3728
 2232TIP3   OH233618   3.614   2.823   5.297 -0.0802  0.2872  0.7649
 2232TIP3    H133619   3.701   2.784   5.294  0.6127  1.7578  0.6495
 2232TIP3    H233620   3.574   2.801   5.213  0.9129  1.1533  0.0378
 2233TIP3   OH233621   6.824   8.383   5.077 -0.0180  0.2915  0.3424
 2233TIP3    H133622   6.746   8.328   5.069  2.0859 -2.7343 -2.0134
 2233TIP3    H233623   6.809   8.454   5.015 -1.2675  0.2951  0.6192
 2234TIP3   OH233624   6.422   0.798   0.946  0.0527 -0.4808  0.8756
 2234TIP3    H133625   6.394   0.884   0.913  1.2698 -0.1038  0.7750
 2234TIP3    H233626   6.517   0.797   0.933  0.0236 -1.9599  0.6390
 2235TIP3   OH233627   5.210   2.289   0.417  0.0595 -1.1892  0.0130
 2235TIP3    H133628   5.161   2.347   0.359 -0.2135 -1.7076 -0.2878
 2235TIP3    H233629   5.250   2.225   0.358 -0.1192 -1.6470  0.3822
 2236TIP3   OH233630   1.868   5.508   0.215 -0.0471  0.1493  0.0004
 2236TIP3    H133631   1.785   5.482   0.175 -0.4857  3.0655 -1.3062
 2236TIP3    H233632   1.843   5.571   0.282  1.0312 -0.7491  1.2968
 2237TIP3   OH233633   7.293   7.676   6.066 -0.4786  0.1808 -0.1687
 2237TIP3    H133634   7.298   7.722   5.982 -2.6192  0.7603 -0.0344
 2237TIP3    H233635   7.298   7.746   6.131  2.0989 -0.3300  0.2951
 2238TIP3   OH233636   8.183   3.971   5.485 -0.2684  0.3615  0.3378
 2238TIP3    H133637   8.238   4.046   5.460  0.6573  0.0414  1.3218
 2238TIP3    H233638   8.218   3.898   5.434 -0.2222  0.2933  0.4681
 2239TIP3   OH233639   2.412   1.548   6.272  0.2438  0.6115  0.2888
 2239TIP3    H133640   2.451   1.526   6.356  1.2122  0.2238 -0.2473
 2239TIP3    H233641   2.446   1.482   6.211  0.4147  1.5065 -0.6250
 2240TIP3   OH233642   2.374   3.652   5.618 -0.6814 -0.5265  0.7407
 2240TIP3    H133643   2.327   3.730   5.589 -0.6098 -0.5962  0.4354
 2240TIP3    H233644   2.467   3.675   5.607 -0.6633 -1.1363 -0.6609
 2241TIP3   OH233645   1.831   3.373   6.601  0.1178  0.1787 -0.0991
 2241TIP3    H133646   1.845   3.386   6.507 -0.1740 -0.2468 -0.2029
 2241TIP3    H233647   1.858   3.456   6.640 -0.0999  0.4916 -0.5959
 2242TIP3   OH233648   4.700   5.259   6.529  0.4857  0.0177  0.8999
 2242TIP3    H133649   4.605   5.270   6.526  0.5627  1.3166  2.2824
 2242TIP3    H233650   4.716   5.200   6.603  0.6461 -2.5582 -1.0427
 2243TIP3   OH233651   6.453   0.199   6.902  0.3723  0.0732 -0.4588
 2243TIP3    H133652   6.507   0.243   6.968 -1.5471  0.1812  1.1484
 2243TIP3    H233653   6.406   0.270   6.858  1.0315 -0.0630 -1.4305
 2244TIP3   OH233654   0.274   3.979   0.726 -0.1065  0.7790 -0.0316
 2244TIP3    H133655   0.219   4.056   0.709  1.6306  2.0360 -0.3933
 2244TIP3    H233656   0.213   3.909   0.745 -1.8781  1.7188 -1.8398
 2245TIP3   OH233657   0.937   5.414   0.222 -0.0264  0.3722  0.4803
 2245TIP3    H133658   1.020   5.430   0.266  0.7472 -0.4023 -0.6391
 2245TIP3    H233659   0.948   5.328   0.181 -0.8542  0.8599 -0.8268
 2246TIP3   OH233660   6.631   4.525   6.230 -0.0725 -0.4457 -0.0921
 2246TIP3    H133661   6.668   4.484   6.309  0.6767  0.2925 -0.0439
 2246TIP3    H233662   6.541   4.547   6.255  0.0836 -0.4348  0.4854
 2247TIP3   OH233663   3.954   5.736   5.076  0.2644  0.5793  0.3124
 2247TIP3    H133664   3.993   5.651   5.095  1.0696  0.6157 -1.0884
 2247TIP3    H233665   3.992   5.795   5.142  2.3653  0.5473 -0.8038
 2248TIP3   OH233666   4.396   5.077   1.756  0.0318  0.3376 -0.0078
 2248TIP3    H133667   4.398   4.987   1.786 -2.0359 -1.1284 -3.5828
 2248TIP3    H233668   4.486   5.096   1.729  0.0926 -1.5877 -1.3406
 2249TIP3   OH233669   3.305   4.738   6.547 -0.2024 -0.1687 -0.0492
 2249TIP3    H133670   3.381   4.774   6.503 -0.0571 -0.1562  0.2126
 2249TIP3    H233671   3.257   4.692   6.478 -0.8052  1.1841 -0.5639
 2250TIP3   OH233672   1.881   6.113   0.040  0.5272 -0.1593  0.7658
 2250TIP3    H133673   1.840   6.126   7.025  2.0566 -0.9479 -0.1299
 2250TIP3    H233674   1.835   6.038   0.077 -0.0765  0.1185  0.5997
 2251TIP3   OH233675   3.646   6.301   5.285 -0.3436 -0.3630  0.0858
 2251TIP3    H133676   3.562   6.339   5.259 -1.3368 -0.9716  2.1863
 2251TIP3    H233677   3.675   6.253   5.207 -1.6341  0.3287 -0.8741
 2252TIP3   OH233678   5.345   3.073   6.438  0.1771  0.1669  0.8611
 2252TIP3    H133679   5.327   3.059   6.530 -0.3336 -1.3191  0.5623
 2252TIP3    H233680   5.364   3.167   6.431  0.2739  0.2888  2.4622
 2253TIP3   OH233681   5.632   0.798   0.976  0.0369  0.3487  0.5518
 2253TIP3    H133682   5.679   0.849   1.042  2.4607  0.4374 -1.0864
 2253TIP3    H233683   5.544   0.834   0.976 -0.2362  0.0193  4.0010
 2254TIP3   OH233684   8.448   6.717   0.424 -0.4422  0.4032 -0.7210
 2254TIP3    H133685   8.493   6.691   0.504 -1.2117 -1.1366 -0.7522
 2254TIP3    H233686   8.397   6.794   0.449  0.6412  0.9593 -0.1872
 2255TIP3   OH233687   2.061   2.744   5.857 -0.0162 -0.2225 -0.5415
 2255TIP3    H133688   1.971   2.730   5.887  0.8121 -0.6036  2.0614
 2255TIP3    H233689   2.086   2.661   5.817 -0.8922 -0.0178 -1.5372
 2256TIP3   OH233690   0.502   7.430   1.490 -0.1035 -0.8934  0.5814
 2256TIP3    H133691   0.489   7.446   1.584 -1.2289  2.3209 -0.0194
 2256TIP3    H233692   0.589   7.467   1.472  0.1140 -1.5162  0.3360
 2257TIP3   OH233693   3.540   6.432   0.041  0.1237 -0.0235 -0.3297
 2257TIP3    H133694   3.564   6.343   0.015 -2.8565 -1.1237  0.2514
 2257TIP3    H233695   3.542   6.430   0.137  1.9195  1.1782 -0.2994
 2258TIP3   OH233696   7.550   2.446   5.528  0.0487  0.3741 -0.1504
 2258TIP3    H133697   7.508   2.529   5.549 -0.2475  0.3711 -0.7388
 2258TIP3    H233698   7.528   2.389   5.602 -1.9254  0.0219 -0.9462
 2259TIP3   OH233699   4.618   0.718   6.447  0.2736  0.1960  0.3133
 2259TIP3    H133700   4.550   0.719   6.515 -0.7799 -1.6165 -0.6227
 2259TIP3    H233701   4.630   0.625   6.428  3.3711  0.4061  0.7189
 2260TIP3   OH233702   5.940   6.167   5.047 -0.3282  0.2053 -0.3846
 2260TIP3    H133703   5.894   6.191   5.127  0.4200  0.1509  0.0753
 2260TIP3    H233704   6.031   6.190   5.064 -0.4050  1.7844 -1.8522
 2261TIP3   OH233705   1.408   1.089   1.486  0.2396  0.3144  0.3342
 2261TIP3    H133706   1.363   1.071   1.568  0.3393 -0.3285  0.2544
 2261TIP3    H233707   1.348   1.145   1.437 -1.3918 -2.0719 -0.5962
 2262TIP3   OH233708   4.239   2.331   0.226 -0.2319 -0.0107  0.4339
 2262TIP3    H133709   4.148   2.353   0.210 -0.0032  2.0284  1.6243
 2262TIP3    H233710   4.289   2.393   0.174  0.5211 -1.0994 -0.1970
 2263TIP3   OH233711   2.313   0.783   5.989 -0.0162  0.0346  0.2666
 2263TIP3    H133712   2.271   0.713   5.940 -0.3339 -0.6055  1.4305
 2263TIP3    H233713   2.243   0.845   6.008 -0.0269 -0.0451  0.4863
 2264TIP3   OH233714   2.953   0.086   6.593 -0.0401  0.6480 -0.6478
 2264TIP3    H133715   2.940   0.043   6.678 -1.6802 -1.0822 -1.7197
 2264TIP3    H233716   2.867   0.082   6.550  1.0657  0.2862 -2.9484
 2265TIP3   OH233717   5.257   7.792   6.659 -0.0346 -0.1116  0.1232
 2265TIP3    H133718   5.320   7.861   6.639  0.4081 -1.2803 -2.9605
 2265TIP3    H233719   5.195   7.794   6.587 -1.6176 -1.2062  1.3836
 2266TIP3   OH233720   1.215   7.404   7.001  0.1626  0.1289  0.3102
 2266TIP3    H133721   1.290   7.432   7.053  1.4048 -0.2573 -1.1730
 2266TIP3    H233722   1.185   7.324   7.043  1.3185 -0.3355  0.2919
 2267TIP3   OH233723   0.658   1.849   0.385  0.3602 -0.2838 -0.0167
 2267TIP3    H133724   0.609   1.767   0.384 -0.5165  0.2370 -0.3302
 2267TIP3    H233725   0.592   1.917   0.371  1.0447  0.4967  0.4673
 2268TIP3   OH233726   3.646   6.183   5.036  0.1680 -0.7188 -0.7745
 2268TIP3    H133727   3.695   6.220   4.962 -0.5367 -0.7937 -1.2848
 2268TIP3    H233728   3.555   6.203   5.017  0.0183 -0.1808  0.4002
 2269TIP3   OH233729   7.387   2.165   0.332  0.3040  0.1469  0.3865
 2269TIP3    H133730   7.481   2.180   0.327  0.5504 -1.3854 -0.0897
 2269TIP3    H233731   7.360   2.209   0.413  1.5516  0.0442  0.8858
 2270TIP3   OH233732   8.430   1.563   6.077 -0.2228 -0.0012 -0.2855
 2270TIP3    H133733   8.483   1.590   6.152 -0.7132 -0.9101  0.3944
 2270TIP3    H233734   8.494   1.549   6.007  0.3517 -0.2244  0.2705
 2271TIP3   OH233735   4.899   1.259   0.475 -0.5297  0.0370  0.4728
 2271TIP3    H133736   4.905   1.342   0.523 -1.4189  0.0081  0.6520
 2271TIP3    H233737   4.944   1.196   0.531  0.5384  0.4801  0.1288
 2272TIP3   OH233738   3.960   7.236   6.050 -0.2177  0.2478  0.7521
 2272TIP3    H133739   3.974   7.153   6.003 -0.2795  0.2404  0.7463
 2272TIP3    H233740   3.913   7.210   6.130 -0.8108  0.3496  0.4476
 2273TIP3   OH233741   0.201   0.864   0.751  0.6214 -0.3885 -0.4670
 2273TIP3    H133742   0.187   0.867   0.656 -1.3636 -1.1767 -0.2414
 2273TIP3    H233743   0.273   0.802   0.762  1.7814  0.7007 -1.4960
 2274TIP3   OH233744   3.141   8.033   6.416 -0.6012 -0.3840 -0.6148
 2274TIP3    H133745   3.195   8.092   6.468  1.4087  0.5883 -3.5608
 2274TIP3    H233746   3.147   7.949   6.461 -1.6959  1.0265  2.4470
 2275TIP3   OH233747   3.450   4.605   0.884 -0.4629  0.1700 -0.1963
 2275TIP3    H133748   3.443   4.575   0.974 -1.4320 -0.8876 -0.6049
 2275TIP3    H233749   3.481   4.695   0.891 -0.5241  0.0970  1.1870
 2276TIP3   OH233750   2.114   4.261   0.380 -0.1900 -0.1050  0.1888
 2276TIP3    H133751   2.141   4.320   0.450 -0.6305  0.4320 -0.0738
 2276TIP3    H233752   2.043   4.209   0.418  1.0158 -1.3381  0.7988
 2277TIP3   OH233753   7.173   2.311   1.061 -0.4293  0.3396 -0.1402
 2277TIP3    H133754   7.092   2.278   1.021  0.3015 -0.4224 -1.0348
 2277TIP3    H233755   7.203   2.379   1.001 -1.0549  1.5366  0.8538
 2278TIP3   OH233756   0.822   6.884   1.761 -0.5745  0.2887 -0.3524
 2278TIP3    H133757   0.842   6.924   1.677  0.1240 -2.6769 -1.7361
 2278TIP3    H233758   0.731   6.906   1.778 -0.5515  1.4401 -1.5735
 2279TIP3   OH233759   6.072   1.018   7.029  0.1112 -0.0461  0.0401
 2279TIP3    H133760   6.089   1.107   6.997 -2.7020  0.3955 -0.5527
 2279TIP3    H233761   6.024   1.032   0.040  1.0507 -1.0717  0.7811
 2280TIP3   OH233762   0.944   6.146   5.884  0.1141 -0.8892 -0.0885
 2280TIP3    H133763   0.924   6.138   5.977 -1.1830 -0.2473 -0.2867
 2280TIP3    H233764   0.863   6.119   5.840 -0.0123  0.7928 -0.9763
 2281TIP3   OH233765   8.099   4.485   0.664 -0.3601 -0.2585 -0.5768
 2281TIP3    H133766   8.144   4.550   0.609  2.6387 -0.7589  1.0420
 2281TIP3    H233767   8.069   4.419   0.602  0.8391  0.3176 -1.8404
 2282TIP3   OH233768   0.082   7.821   0.933 -0.1189  0.2310  0.3929
 2282TIP3    H133769   0.044   7.752   0.879  0.6428 -0.3772  0.6120
 2282TIP3    H233770   0.019   7.892   0.929 -0.7652 -0.3546 -0.1082
 2283TIP3   OH233771   2.409   6.622   0.636 -0.0727 -0.5173  0.4282
 2283TIP3    H133772   2.346   6.692   0.617 -0.3819 -1.2689 -1.6213
 2283TIP3    H233773   2.478   6.635   0.571 -1.4163 -3.5997 -1.8701
 2284TIP3   OH233774   7.132   0.754   6.764 -0.2150  0.1852 -0.7220
 2284TIP3    H133775   7.077   0.684   6.799 -1.5268  0.5768 -1.9475
 2284TIP3    H233776   7.075   0.831   6.759  1.2767  1.5179  0.9436
 2285TIP3   OH233777   4.846   1.783   0.412 -0.7626  0.3284  0.1899
 2285TIP3    H133778   4.826   1.867   0.372 -1.1621  1.0168  1.7381
 2285TIP3    H233779   4.928   1.798   0.459  0.3769 -0.8157 -1.3566
 2286TIP3   OH233780   5.431   7.874   0.340  0.3692 -0.3636  0.0730
 2286TIP3    H133781   5.482   7.808   0.386  2.0525 -0.1913 -1.4330
 2286TIP3    H233782   5.353   7.828   0.310  0.5737 -1.1544  0.7209
 2287TIP3   OH233783   5.921   4.151   6.493 -0.5904 -0.1174 -1.1044
 2287TIP3    H133784   5.860   4.093   6.539  0.8556 -0.0225  1.0989
 2287TIP3    H233785   5.963   4.095   6.428 -0.1618 -1.2181  0.0955
 2288TIP3   OH233786   1.645   5.478   0.554 -0.0437  0.0876  0.0875
 2288TIP3    H133787   1.646   5.394   0.599  0.9675  0.3737  0.6313
 2288TIP3    H233788   1.737   5.496   0.535 -0.3957  0.2257 -1.6513
 2289TIP3   OH233789   6.427   6.554   5.256 -0.2395  0.8038  0.0123
 2289TIP3    H133790   6.342   6.560   5.213 -0.0874 -0.1069 -0.4431
 2289TIP3    H233791   6.417   6.480   5.317  0.9376 -0.9835 -1.8069
 2290TIP3   OH233792   5.148   0.603   0.774  0.0718 -0.4594 -0.1319
 2290TIP3    H133793   5.108   0.690   0.781 -0.3750 -0.7360  0.9965
 2290TIP3    H233794   5.170   0.594   0.681  0.2864  0.9257 -0.2315
 2291TIP3   OH233795   3.830   7.843   1.741  0.7766  0.3617  0.4225
 2291TIP3    H133796   3.800   7.905   1.676  0.3186 -1.4262 -1.1693
 2291TIP3    H233797   3.792   7.873   1.824 -1.1693  0.9992 -0.6624
 2292TIP3   OH233798   5.654   8.125   6.995  0.7104 -0.4372  0.1040
 2292TIP3    H133799   5.663   8.175   6.914 -1.7776  0.7939  0.5134
 2292TIP3    H233800   5.645   8.191   7.064 -2.0979 -1.3613  0.7325
 2293TIP3   OH233801   5.920   8.171   6.888 -0.3655  0.2491  0.3376
 2293TIP3    H133802   5.899   8.166   6.981 -0.8439  0.9541  0.2767
 2293TIP3    H233803   5.940   8.263   6.872 -1.5560  0.3880 -0.5068
 2294TIP3   OH233804   4.121   4.088   6.274 -0.0892  0.9033  0.5244
 2294TIP3    H133805   4.123   4.047   6.361  0.7840  1.0652  0.5950
 2294TIP3    H233806   4.028   4.092   6.251 -0.3742  1.3189  1.6754
 2295TIP3   OH233807   6.495   8.358   1.193 -0.2972 -0.1267 -0.0692
 2295TIP3    H133808   6.578   8.328   1.229 -1.1035  1.4140  3.5266
 2295TIP3    H233809   6.512   8.448   1.166 -0.8292  0.3026  0.9872
 2296TIP3   OH233810   6.441   3.380   6.131  0.1621 -0.6967 -0.4245
 2296TIP3    H133811   6.492   3.348   6.206 -0.4508 -1.4149 -0.2961
 2296TIP3    H233812   6.500   3.440   6.085  1.6436 -2.5755 -1.0906
 2297TIP3   OH233813   2.137   2.557   7.036  0.2880 -0.4352  0.6824
 2297TIP3    H133814   2.135   2.635   0.020 -2.0555 -2.1125  3.2451
 2297TIP3    H233815   2.183   2.585   6.957 -0.0053  3.3804  1.6410
 2298TIP3   OH233816   3.050   7.500   0.427 -0.0613  0.3364 -0.4088
 2298TIP3    H133817   3.119   7.526   0.489 -0.3844 -0.7501  0.4365
 2298TIP3    H233818   2.979   7.561   0.443  0.2785  0.7653 -0.5092
 2299TIP3   OH233819   5.370   1.090   5.095 -0.4399 -0.1953 -0.2232
 2299TIP3    H133820   5.458   1.079   5.133 -0.9330 -1.1056  0.7225
 2299TIP3    H233821   5.318   1.127   5.167 -1.5894 -2.6864  0.3159
 2300TIP3   OH233822   0.281   1.568   5.992  0.1866 -0.5073  0.3580
 2300TIP3    H133823   0.249   1.592   6.079  0.6221  0.1930  0.3322
 2300TIP3    H233824   0.203   1.538   5.945 -0.1670 -0.2417  0.7749
 2301TIP3   OH233825   3.493   3.406   6.248 -0.5188  0.4005  0.1570
 2301TIP3    H133826   3.514   3.360   6.329  0.7224 -0.1354 -0.4407
 2301TIP3    H233827   3.399   3.389   6.235 -0.1051 -2.0875 -0.0875
 2302TIP3   OH233828   8.503   1.090   0.564 -0.2047 -0.1784  0.6479
 2302TIP3    H133829   8.421   1.125   0.532 -0.2816  0.0034  1.0429
 2302TIP3    H233830   8.497   0.996   0.546 -0.1965 -0.0655  0.0282
 2303TIP3   OH233831   3.487   0.738   5.145  0.3438  0.0331 -0.2367
 2303TIP3    H133832   3.571   0.741   5.100  0.7420 -1.3063  0.3619
 2303TIP3    H233833   3.495   0.802   5.215  1.0749 -0.4435  0.1320
 2304TIP3   OH233834   6.329   4.081   1.356 -0.5710 -0.1985 -0.1037
 2304TIP3    H133835   6.360   4.117   1.439  0.3161 -0.5348 -0.2819
 2304TIP3    H233836   6.275   4.151   1.319 -0.8385  0.0163  0.6703
 2305TIP3   OH233837   4.000   5.094   0.186  0.2025  0.8067 -0.3441
 2305TIP3    H133838   4.094   5.084   0.174  0.4607  2.2816  0.3049
 2305TIP3    H233839   3.964   5.008   0.163  1.6221  0.4281 -1.2882
 2306TIP3   OH233840   3.383   3.030   6.220 -0.4303 -0.2623 -0.3725
 2306TIP3    H133841   3.453   3.071   6.270 -2.3311  3.0753 -0.1956
 2306TIP3    H233842   3.353   2.958   6.275 -0.4688  1.4424  1.9494
 2307TIP3   OH233843   8.442   0.778   1.164 -0.7734 -0.3071  0.2214
 2307TIP3    H133844   8.516   0.780   1.224 -2.2386 -2.8087  2.3219
 2307TIP3    H233845   8.396   0.861   1.181 -0.6820 -0.5792  2.0081
 2308TIP3   OH233846   1.186   1.760   6.265 -0.1888  0.1971  0.3059
 2308TIP3    H133847   1.101   1.795   6.241 -0.0616 -0.3382 -1.0150
 2308TIP3    H233848   1.244   1.783   6.192  0.9087  0.8754  1.3434
 2309TIP3   OH233849   2.756   7.347   0.295 -0.1868  0.7360 -0.4317
 2309TIP3    H133850   2.814   7.279   0.261 -1.0384  0.0854 -0.6029
 2309TIP3    H233851   2.704   7.303   0.362  1.8799  2.1050  2.2617
 2310TIP3   OH233852   7.326   5.643   2.028 -0.1645  0.8318 -0.1932
 2310TIP3    H133853   7.397   5.694   1.991 -0.6339  2.5390  1.1557
 2310TIP3    H233854   7.258   5.644   1.961  0.5623  0.3043 -0.9526
 2311TIP3   OH233855   8.105   1.142   0.808  0.8452  0.1286  0.1229
 2311TIP3    H133856   8.012   1.121   0.816  0.7389  0.3763 -0.3934
 2311TIP3    H233857   8.151   1.064   0.840  0.4705  0.4532  1.5113
 2312TIP3   OH233858   8.165   3.483   6.341  0.2865 -0.2603  0.0183
 2312TIP3    H133859   8.183   3.516   6.429  0.7076  1.3469 -0.6339
 2312TIP3    H233860   8.221   3.535   6.283  0.1740 -1.4142 -1.1952
 2313TIP3   OH233861   1.641   0.145   0.323  0.2624 -0.3466  0.0688
 2313TIP3    H133862   1.716   0.196   0.356  0.5729 -1.6214  1.4379
 2313TIP3    H233863   1.601   0.202   0.257  0.9993  1.3775  1.0342
 2314TIP3   OH233864   7.069   1.242   5.787 -0.1835 -0.3896  0.0889
 2314TIP3    H133865   7.113   1.162   5.816 -0.1324  0.0621  1.3378
 2314TIP3    H233866   6.989   1.246   5.839 -0.0723  0.4812  0.2121
 2315TIP3   OH233867   2.168   1.699   5.160  0.5091  0.0861  0.0080
 2315TIP3    H133868   2.115   1.776   5.142 -0.2956 -0.2438  0.8775
 2315TIP3    H233869   2.245   1.708   5.103  0.2341  1.3165 -0.1854
 2316TIP3   OH233870   1.005   5.698   6.470  0.4840 -0.2516 -0.3300
 2316TIP3    H133871   1.044   5.728   6.388  0.9816  0.4283  0.1365
 2316TIP3    H233872   0.961   5.616   6.448 -0.6297  0.6480 -1.5965
 2317TIP3   OH233873   3.748   0.642   0.347  0.0199 -0.1029 -0.0063
 2317TIP3    H133874   3.717   0.724   0.384  1.0798  0.2014  0.2410
 2317TIP3    H233875   3.710   0.639   0.259  1.3314  1.4974 -0.6776
 2318TIP3   OH233876   0.547   0.223   0.325 -0.0505 -0.8024 -0.1766
 2318TIP3    H133877   0.623   0.236   0.382 -0.1117 -0.2444 -0.2157
 2318TIP3    H233878   0.563   0.139   0.282 -0.6959 -1.9890  1.7529
 2319TIP3   OH233879   2.500   4.469   1.104  0.2523 -0.2952 -0.5355
 2319TIP3    H133880   2.565   4.539   1.098  0.8907 -0.8708 -0.4359
 2319TIP3    H233881   2.526   4.419   1.182  0.5778 -1.4135 -1.3393
 2320TIP3   OH233882   0.176   2.970   1.841  0.6748 -0.2351 -0.4851
 2320TIP3    H133883   0.162   3.041   1.904 -0.1229 -1.6023  0.9568
 2320TIP3    H233884   0.268   2.979   1.816  0.3298  1.9613 -1.2399
 2321TIP3   OH233885   7.049   3.610   1.043  0.1193  0.0585  0.0076
 2321TIP3    H133886   6.971   3.631   1.094  0.6066  1.1746  0.3252
 2321TIP3    H233887   7.122   3.623   1.103  0.5295 -1.7745 -0.0492
 2322TIP3   OH233888   4.829   5.115   0.646  0.7928 -0.5810 -0.0102
 2322TIP3    H133889   4.757   5.136   0.587 -0.0004  0.5861  1.3019
 2322TIP3    H233890   4.907   5.117   0.590  0.2351  1.8083 -0.8407
 2323TIP3   OH233891   2.770   6.493   0.886 -0.3290  0.6578  0.2575
 2323TIP3    H133892   2.820   6.549   0.945  1.8927 -0.8725 -0.0475
 2323TIP3    H233893   2.745   6.418   0.940 -2.0056  1.2142  0.2941
 2324TIP3   OH233894   7.620   1.711   0.718 -0.9767  0.4547 -0.1897
 2324TIP3    H133895   7.567   1.654   0.662  0.0326 -0.3153 -0.3740
 2324TIP3    H233896   7.653   1.653   0.787 -0.7758  1.0377  0.2106
 2325TIP3   OH233897   2.715   1.919   6.840  0.3602  0.4016  0.1273
 2325TIP3    H133898   2.626   1.900   6.869 -0.3433  2.5396 -0.4941
 2325TIP3    H233899   2.750   1.980   6.905  0.6108  1.2226 -0.7642
 2326TIP3   OH233900   6.785   3.154   6.472  0.2717  0.1620 -0.1575
 2326TIP3    H133901   6.835   3.089   6.423 -2.1372 -0.9642 -1.3002
 2326TIP3    H233902   6.792   3.126   6.563  1.0009 -0.4459 -0.3926
 2327TIP3   OH233903   8.401   3.431   0.572  0.3232  0.3949  0.6776
 2327TIP3    H133904   8.319   3.452   0.617 -0.1447  0.5399 -0.2023
 2327TIP3    H233905   8.467   3.430   0.640 -0.1132  2.0559  1.1720
 2328TIP3   OH233906   3.516   4.172   6.495 -1.0448  0.4219  0.0709
 2328TIP3    H133907   3.587   4.151   6.556 -1.0549 -0.9532 -0.3669
 2328TIP3    H233908   3.547   4.139   6.411 -3.0147 -2.0680  0.2254
 2329TIP3   OH233909   0.330   2.891   5.954  0.7975 -0.2868 -0.0779
 2329TIP3    H133910   0.307   2.809   5.910  1.2816 -0.4432 -0.0449
 2329TIP3    H233911   0.380   2.940   5.888 -0.0808  0.2818 -0.3376
 2330TIP3   OH233912   6.671   4.224   6.041  0.0492 -0.3184  0.2126
 2330TIP3    H133913   6.586   4.260   6.019  0.4352 -0.1137 -0.9790
 2330TIP3    H233914   6.686   4.251   6.132 -1.6684 -1.3727  0.8668
 2331TIP3   OH233915   7.136   2.617   0.021 -0.0136  0.2189  0.2814
 2331TIP3    H133916   7.118   2.700   7.047  1.4152 -0.9516 -2.7466
 2331TIP3    H233917   7.050   2.582   0.043 -0.7360  1.5057 -0.3481
 2332TIP3   OH233918   3.734   3.481   6.376  0.4886  0.0260  0.0998
 2332TIP3    H133919   3.673   3.505   6.306  0.6037  1.1313  0.3664
 2332TIP3    H233920   3.694   3.517   6.455  0.0116 -1.7918  0.7335
 2333TIP3   OH233921   1.073   7.540   6.819  0.6844  0.4594 -0.1556
 2333TIP3    H133922   1.115   7.511   6.899  2.5430  2.9262 -0.1012
 2333TIP3    H233923   0.981   7.518   6.830  1.1375 -0.5847  1.9758
 2334TIP3   OH233924   1.866   2.988   6.000  0.0106 -0.2168 -0.4447
 2334TIP3    H133925   1.957   2.980   5.973  0.2686  1.0120 -0.0112
 2334TIP3    H233926   1.859   3.077   6.034 -1.3751 -0.2724 -0.5379
 2335TIP3   OH233927   8.426   5.011   0.401 -0.7002 -0.2350  0.2825
 2335TIP3    H133928   8.337   4.987   0.424 -1.0888  0.2139 -0.7082
 2335TIP3    H233929   8.463   4.931   0.363 -0.5758 -0.5016  0.9414
 2336TIP3   OH233930   7.294   2.891   6.262 -0.2230 -0.7249 -0.0614
 2336TIP3    H133931   7.362   2.931   6.317  0.3832 -0.3839 -1.0201
 2336TIP3    H233932   7.212   2.923   6.299  0.2219  0.9309 -0.3958
 2337TIP3   OH233933   0.396   6.874   5.822  0.2106 -0.0114 -0.1843
 2337TIP3    H133934   0.339   6.949   5.806 -1.0714 -0.6194  1.3347
 2337TIP3    H233935   0.470   6.910   5.870  0.1033  0.4341 -0.3483
 2338TIP3   OH233936   0.355   0.562   0.694  0.4945 -0.0796 -0.0743
 2338TIP3    H133937   0.261   0.542   0.698  1.0601 -2.8256  1.3672
 2338TIP3    H233938   0.384   0.523   0.611  0.5334 -0.0708 -0.0647
 2339TIP3   OH233939   5.900   8.143   5.210  0.4248 -0.2480 -0.3915
 2339TIP3    H133940   5.927   8.053   5.193 -2.6718 -1.1576 -1.3190
 2339TIP3    H233941   5.893   8.183   5.123 -1.8391 -0.4023 -0.3614
 2340TIP3   OH233942   4.524   0.344   5.824  0.3126  0.0413  0.2389
 2340TIP3    H133943   4.611   0.339   5.784  0.4586  0.1000  0.5529
 2340TIP3    H233944   4.502   0.437   5.824  0.1871  0.0140  0.0306
 2341TIP3   OH233945   2.719   0.524   5.046  0.2017  0.3421 -0.3813
 2341TIP3    H133946   2.810   0.520   5.074  0.2554  0.8288 -0.4821
 2341TIP3    H233947   2.723   0.532   4.950  0.0115 -2.0330 -0.6495
 2342TIP3   OH233948   1.717   8.508   5.992  0.1233  0.0791  0.2458
 2342TIP3    H133949   1.768   8.532   6.070  2.4707 -1.9103 -0.5492
 2342TIP3    H233950   1.743   0.036   5.925 -0.0276  0.2973  0.3911
 2343TIP3   OH233951   8.270   7.819   6.453  0.3216 -0.2523  0.3004
 2343TIP3    H133952   8.322   7.804   6.374 -0.2655  0.2224 -0.1778
 2343TIP3    H233953   8.211   7.744   6.457 -0.5774  0.4006 -0.4630
 2344TIP3   OH233954   0.503   6.593   6.320  0.3315 -0.5853  0.5981
 2344TIP3    H133955   0.519   6.687   6.333  1.3163 -0.4748 -1.2291
 2344TIP3    H233956   0.561   6.550   6.383  0.7625  0.0048  0.6081
 2345TIP3   OH233957   8.165   5.205   4.922 -0.2212 -0.4481 -0.1651
 2345TIP3    H133958   8.248   5.242   4.892  0.2314 -0.7631  0.6740
 2345TIP3    H233959   8.123   5.277   4.969  0.4087 -0.8159  0.9872
 2346TIP3   OH233960   0.589   7.442   4.954 -0.6471 -0.0412 -0.5878
 2346TIP3    H133961   0.654   7.509   4.932 -1.3047  0.5454 -0.7952
 2346TIP3    H233962   0.505   7.482   4.932 -1.0689 -0.8793 -0.5632
 2347TIP3   OH233963   3.417   8.165   6.871  0.0790  0.2467 -0.1764
 2347TIP3    H133964   3.399   8.243   6.924  1.5356 -0.4265  1.3990
 2347TIP3    H233965   3.513   8.161   6.866  0.0665 -1.7922  0.3274
 2348TIP3   OH233966   7.858   1.982   1.677  0.1083 -0.6956 -0.4002
 2348TIP3    H133967   7.903   2.035   1.744  0.3090  0.4768 -1.4145
 2348TIP3    H233968   7.809   1.917   1.727 -1.0331  1.1330  0.9946
 2349TIP3   OH233969   4.508   2.362   0.432  0.3856  0.4279 -0.0628
 2349TIP3    H133970   4.560   2.442   0.440  0.5057  0.4160 -0.6555
 2349TIP3    H233971   4.489   2.336   0.522  1.7217  0.2204  0.1749
 2350TIP3   OH233972   0.544   3.288   6.053  0.7713 -0.5309  0.3879
 2350TIP3    H133973   0.558   3.226   6.124  0.7027 -1.1316 -0.1119
 2350TIP3    H233974   0.463   3.333   6.077  0.4251 -1.1435  0.4103
 2351TIP3   OH233975   0.623   7.867   6.108 -0.0399 -0.2027 -0.6426
 2351TIP3    H133976   0.543   7.819   6.131  1.8116 -2.9859  0.6268
 2351TIP3    H233977   0.647   7.834   6.022  0.2621 -0.2037 -0.5606
 2352TIP3   OH233978   7.770   4.001   6.547  0.3297 -0.5730  0.0807
 2352TIP3    H133979   7.754   3.926   6.490  1.0484 -0.4165 -0.3395
 2352TIP3    H233980   7.682   4.035   6.568  0.0628  0.1245 -1.9601
 2353TIP3   OH233981   1.320   7.826   0.502  0.0023 -0.1739 -0.7224
 2353TIP3    H133982   1.296   7.758   0.564  0.8349 -0.7188 -0.9879
 2353TIP3    H233983   1.373   7.782   0.436  0.5403  0.7141 -0.9140
 2354TIP3   OH233984   0.483   0.727   0.888 -0.0077  0.0188  0.3587
 2354TIP3    H133985   0.475   0.669   0.964 -0.1878 -0.7913 -0.2632
 2354TIP3    H233986   0.451   0.675   0.814  1.6064  0.2215 -0.5504
 2355TIP3   OH233987   3.331   6.943   0.201  0.4178  0.5146 -0.8979
 2355TIP3    H133988   3.391   6.877   0.235 -0.5522 -0.0787 -0.2782
 2355TIP3    H233989   3.249   6.927   0.248  0.0542  1.9320 -1.0029
 2356TIP3   OH233990   3.168   4.666   5.254 -0.3821  0.2551 -0.1083
 2356TIP3    H133991   3.204   4.651   5.167  0.1779 -0.6508  0.2561
 2356TIP3    H233992   3.074   4.651   5.245 -0.3574  0.4058 -0.6075
 2357TIP3   OH233993   2.166   2.523   5.713  0.9109  0.0786  0.1009
 2357TIP3    H133994   2.166   2.457   5.643 -0.3199  1.8195 -1.6658
 2357TIP3    H233995   2.144   2.474   5.792  0.2320 -1.6639 -1.0909
 2358TIP3   OH233996   8.222   6.790   0.042 -0.8376 -0.4803 -0.3248
 2358TIP3    H133997   8.247   6.831   0.125 -0.3043 -0.0578 -0.6863
 2358TIP3    H233998   8.159   6.722   0.067  0.3815 -1.3195  0.5672
 2359TIP3   OH233999   3.998   7.046   6.687  0.0750 -0.8050 -0.2203
 2359TIP3    H134000   3.957   7.035   6.773  0.4180  0.6933  0.1626
 2359TIP3    H234001   3.993   7.140   6.670  1.1856 -0.9103 -1.2536
 2360TIP3   OH234002   2.486   5.304   5.794 -0.3277  0.0814 -0.2850
 2360TIP3    H134003   2.536   5.322   5.874 -0.2848 -1.3992  0.0656
 2360TIP3    H234004   2.454   5.389   5.765 -0.5229  0.6302  1.4345
 2361TIP3   OH234005   7.710   3.530   6.687 -0.5308 -0.2332 -0.0459
 2361TIP3    H134006   7.713   3.474   6.610 -2.1150 -1.1607  0.5337
 2361TIP3    H234007   7.617   3.542   6.706 -0.2887  2.6599 -0.1446
 2362TIP3   OH234008   2.327   6.643   5.800  0.0200  0.0808 -0.1373
 2362TIP3    H134009   2.297   6.706   5.865  0.3817 -0.6254  0.7327
 2362TIP3    H234010   2.420   6.663   5.787 -0.3738  1.1890 -1.5919
 2363TIP3   OH234011   2.072   7.689   1.642  0.5805  0.2532 -0.0678
 2363TIP3    H134012   2.130   7.623   1.603  0.3136 -0.0601  0.0564
 2363TIP3    H234013   2.131   7.749   1.687  0.8315  0.1161 -0.2096
 2364TIP3   OH234014   6.978   4.785   1.566 -0.2235 -0.4758  0.3318
 2364TIP3    H134015   7.057   4.735   1.546  0.9040  1.4861 -0.4500
 2364TIP3    H234016   6.975   4.788   1.662 -0.4695 -2.1819  0.4054
 2365TIP3   OH234017   2.598   4.609   5.575 -0.2087  0.0710  0.1641
 2365TIP3    H134018   2.678   4.640   5.533 -0.3437  1.1268  0.6632
 2365TIP3    H234019   2.579   4.674   5.643 -1.8392  0.1906 -0.3655
 2366TIP3   OH234020   1.036   1.929   6.065 -0.1176  0.7054 -0.4941
 2366TIP3    H134021   1.118   1.960   6.027 -0.4533  2.2800 -0.0039
 2366TIP3    H234022   1.025   1.981   6.145 -0.5877 -0.9143  0.5573
 2367TIP3   OH234023   3.252   5.275   6.064 -0.1660 -0.5088  0.4933
 2367TIP3    H134024   3.164   5.307   6.043 -0.3486 -0.8192  0.7774
 2367TIP3    H234025   3.303   5.355   6.081 -0.0209 -0.2534 -1.0715
 2368TIP3   OH234026   2.492   7.165   0.128 -0.2173  0.4054 -0.0116
 2368TIP3    H134027   2.446   7.134   0.205  2.5975  0.0294  1.6587
 2368TIP3    H234028   2.479   7.260   0.128  0.9988  0.6092  1.8763
 2369TIP3   OH234029   6.112   3.269   6.924  0.6825  0.7329 -0.0769
 2369TIP3    H134030   6.156   3.344   6.887  1.1184  1.3559  1.6098
 2369TIP3    H234031   6.021   3.298   6.937  0.6929  0.7412 -0.0227
 2370TIP3   OH234032   0.461   4.875   0.656 -0.0536 -0.2616  0.1902
 2370TIP3    H134033   0.555   4.867   0.638 -0.1021 -2.9802  0.6596
 2370TIP3    H234034   0.454   4.852   0.749 -1.0880  1.0752  0.4606
 2371TIP3   OH234035   1.319   6.965   6.037 -0.0426 -0.1248 -0.4459
 2371TIP3    H134036   1.291   6.993   5.950 -2.4366 -2.4634 -0.5703
 2371TIP3    H234037   1.387   6.899   6.021  0.0164 -0.0434 -0.5267
 2372TIP3   OH234038   1.461   1.648   1.272  0.1060  0.0548  0.2776
 2372TIP3    H134039   1.509   1.604   1.202  0.8037  1.0976  0.0975
 2372TIP3    H234040   1.479   1.741   1.260 -2.7307  0.6174 -0.4038
 2373TIP3   OH234041   0.407   5.073   4.857  0.3850  0.0104  0.2886
 2373TIP3    H134042   0.379   5.135   4.790 -0.8834 -0.9363 -0.0780
 2373TIP3    H234043   0.495   5.102   4.880  0.8010  0.4360 -1.6706
 2374TIP3   OH234044   5.515   0.934   0.213 -0.5196 -0.4120  0.3609
 2374TIP3    H134045   5.445   0.886   0.169 -0.2725 -1.4980  1.0957
 2374TIP3    H234046   5.476   0.964   0.295 -0.4946  0.1389  0.1781
 2375TIP3   OH234047   0.284   3.422   0.821  0.1002 -0.2498  0.3979
 2375TIP3    H134048   0.219   3.405   0.889 -0.1720 -1.3834 -0.1232
 2375TIP3    H234049   0.233   3.449   0.745  0.4730  2.1272  0.9284
 2376TIP3   OH234050   2.784   4.377   6.210 -0.4755 -0.2856  0.1168
 2376TIP3    H134051   2.855   4.437   6.233 -1.0183  0.1521  0.6791
 2376TIP3    H234052   2.750   4.412   6.128 -0.7582  0.1630  0.4163
 2377TIP3   OH234053   2.382   6.227   6.099 -0.3339 -0.0878 -0.1900
 2377TIP3    H134054   2.422   6.140   6.109 -0.6369 -0.3997 -1.4637
 2377TIP3    H234055   2.341   6.224   6.012  0.8419  1.7965 -0.8795
 2378TIP3   OH234056   7.419   7.701   0.195  0.7547 -0.5395  0.0917
 2378TIP3    H134057   7.329   7.719   0.165  0.4762 -0.2577  1.0806
 2378TIP3    H234058   7.416   7.712   0.290  1.8679 -0.4203  0.1275
 2379TIP3   OH234059   6.490   7.928   6.242 -0.1915  0.4387  0.7190
 2379TIP3    H134060   6.501   7.834   6.231 -2.3094  0.1812  0.2626
 2379TIP3    H234061   6.555   7.953   6.308  1.7681 -0.9381 -0.5867
 2380TIP3   OH234062   6.622   7.008   6.953 -0.4981  0.7007 -0.8074
 2380TIP3    H134063   6.540   6.969   6.984 -0.4831  0.7602 -0.6926
 2380TIP3    H234064   6.686   6.937   6.958 -1.1193 -0.1709 -3.4586
 2381TIP3   OH234065   6.014   7.137   6.222 -0.0212  0.1761  0.3259
 2381TIP3    H134066   5.948   7.194   6.261  0.3431  0.6323  0.2879
 2381TIP3    H234067   6.008   7.155   6.128 -0.2061 -0.1707  0.2721
 2382TIP3   OH234068   2.293   4.796   6.527  0.6051  0.0081  0.4569
 2382TIP3    H134069   2.347   4.867   6.562 -0.5600  1.1143  0.0929
 2382TIP3    H234070   2.233   4.774   6.598  1.2033 -0.8922  0.6993
 2383TIP3   OH234071   6.204   7.884   6.199  0.0316  0.1105 -0.2064
 2383TIP3    H134072   6.292   7.914   6.220  0.8621 -1.4549 -1.2860
 2383TIP3    H234073   6.182   7.823   6.269 -0.2885  0.6496  0.1689
 2384TIP3   OH234074   0.799   5.726   0.596  0.2196 -0.0713 -0.1766
 2384TIP3    H134075   0.769   5.682   0.517  2.2314 -1.1832 -0.3965
 2384TIP3    H234076   0.775   5.667   0.668  2.2293 -1.2635 -0.4042
 2385TIP3   OH234077   0.616   6.806   0.711  0.1326 -0.3087  0.1772
 2385TIP3    H134078   0.692   6.783   0.765 -1.2947  0.8124  2.8635
 2385TIP3    H234079   0.560   6.729   0.714 -0.7220  0.3370  1.8411
 2386TIP3   OH234080   6.703   8.214   0.859  0.0879  0.0240 -0.2263
 2386TIP3    H134081   6.761   8.239   0.931 -0.0528  0.1973 -0.1748
 2386TIP3    H234082   6.620   8.194   0.901  0.0494 -0.0261 -0.3255
 2387TIP3   OH234083   6.887   0.982   6.590  0.2046 -0.0261 -0.3072
 2387TIP3    H134084   6.931   1.029   6.661 -0.5843  2.6156 -1.4566
 2387TIP3    H234085   6.823   0.926   6.634 -0.2534  1.5323  1.1014
 2388TIP3   OH234086   8.233   7.212   0.258  0.5907  0.9206 -0.4626
 2388TIP3    H134087   8.310   7.269   0.257  0.5718  0.9529 -0.1159
 2388TIP3    H234088   8.159   7.272   0.262  0.5408  0.8934 -0.9195
 2389TIP3   OH234089   2.579   7.233   0.478 -0.2186  0.1402  0.0769
 2389TIP3    H134090   2.597   7.190   0.561 -2.7657  0.2777  0.7727
 2389TIP3    H234091   2.541   7.165   0.423  0.4983  0.2987 -0.6358
 2390TIP3   OH234092   4.027   2.167   0.001  0.1694  0.4952  0.0849
 2390TIP3    H134093   3.969   2.109   0.051 -0.4265 -0.2669 -1.4122
 2390TIP3    H234094   3.969   2.237   7.041  0.3651  0.5446 -0.1690
 2391TIP3   OH234095   7.349   2.315   0.008  0.2013  0.0813  0.3010
 2391TIP3    H134096   7.315   2.226   0.020  0.3070  0.0287  0.2127
 2391TIP3    H234097   7.306   2.346   6.999  0.5637 -0.0856  0.0361
 2392TIP3   OH234098   5.630   3.692   5.105  0.5003  0.2929 -0.3008
 2392TIP3    H134099   5.611   3.770   5.158  1.0044  0.5867 -0.5462
 2392TIP3    H234100   5.671   3.631   5.167  1.5254  0.8153 -0.4424
 2393TIP3   OH234101   4.106   0.493   5.890 -0.1783  0.3319 -0.3593
 2393TIP3    H134102   4.065   0.577   5.869  0.0523  0.6990  0.5772
 2393TIP3    H234103   4.074   0.433   5.823 -1.7222  0.7691 -0.0736
 2394TIP3   OH234104   7.000   7.742   6.563 -0.0082 -0.1113  0.0247
 2394TIP3    H134105   6.912   7.760   6.597 -0.1345  1.2844 -0.9550
 2394TIP3    H234106   6.986   7.689   6.484  0.2484 -2.6631  1.5546
 2395TIP3   OH234107   5.967   3.686   5.610  0.0764 -0.2407 -0.2549
 2395TIP3    H134108   5.963   3.612   5.550 -0.7514 -0.4922  0.1051
 2395TIP3    H234109   6.055   3.680   5.649 -0.2872 -1.5681  0.4246
 2396TIP3   OH234110   8.201   5.278   6.726  0.4185 -0.1557 -0.0133
 2396TIP3    H134111   8.245   5.277   6.811  0.6591 -2.2879 -0.1067
 2396TIP3    H234112   8.195   5.186   6.701  0.1186  0.4030 -2.2012
 2397TIP3   OH234113   6.634   2.946   5.749 -0.1749  0.3667  1.1231
 2397TIP3    H134114   6.657   2.853   5.750  2.3800  0.9007  0.4373
 2397TIP3    H234115   6.540   2.948   5.730 -0.2761 -2.0576  1.0936
 2398TIP3   OH234116   7.526   8.377   0.395  0.0238 -0.0144  0.6881
 2398TIP3    H134117   7.448   8.351   0.444  0.3594 -0.1830  1.1513
 2398TIP3    H234118   7.498   8.380   0.304 -0.5720  0.1254  0.8695
 2399TIP3   OH234119   0.911   7.814   5.304 -0.7381 -0.3654  0.0992
 2399TIP3    H134120   0.911   7.748   5.235 -1.1220 -3.7231  3.0094
 2399TIP3    H234121   0.985   7.791   5.360 -0.5072  2.1245  0.9720
 2400TIP3   OH234122   4.230   1.217   5.688 -0.0287  0.1073  0.2007
 2400TIP3    H134123   4.160   1.274   5.656  0.3447  0.5449  0.1558
 2400TIP3    H234124   4.261   1.172   5.609  2.3788  2.7903 -0.5388
 2401TIP3   OH234125   3.004   0.053   0.013  0.6471  0.0959 -0.1199
 2401TIP3    H134126   2.937   0.035   7.018 -0.7202  1.6340  0.7730
 2401TIP3    H234127   3.045   0.135   7.056 -0.2351  0.9997  1.0765
 2402TIP3   OH234128   0.070   3.903   1.276 -0.2203 -0.8515  0.3015
 2402TIP3    H134129   0.060   3.890   1.370 -0.5050 -0.5052  0.3224
 2402TIP3    H234130   0.135   3.838   1.249 -2.0950 -2.7908  0.2624
 2403TIP3   OH234131   7.856   6.959   0.122 -0.5844 -0.2423 -0.0079
 2403TIP3    H134132   7.947   6.953   0.093 -0.7198  0.0400 -0.5069
 2403TIP3    H234133   7.809   6.896   0.067 -0.9394  0.7171 -0.8414
 2404TIP3   OH234134   2.089   6.896   6.295 -0.5329  0.0231 -0.1249
 2404TIP3    H134135   2.056   6.952   6.365  0.6342 -1.5016  1.7670
 2404TIP3    H234136   2.011   6.850   6.262 -0.9178 -0.3924  1.2955
 2405TIP3   OH234137   1.298   4.536   0.491  0.0250  0.5832 -0.2188
 2405TIP3    H134138   1.295   4.471   0.421 -1.2865  0.7821 -0.3749
 2405TIP3    H234139   1.385   4.575   0.484  1.7999 -2.6689  1.3111
 2406TIP3   OH234140   2.687   7.191   6.616  0.2841 -0.5798  0.1472
 2406TIP3    H134141   2.703   7.263   6.678  3.0645 -1.5282  0.6796
 2406TIP3    H234142   2.596   7.166   6.631 -0.1740  1.5292  1.3141
 2407TIP3   OH234143   5.748   5.252   1.612  0.2900  0.1755  0.3446
 2407TIP3    H134144   5.829   5.258   1.662 -0.4359  0.8001  1.4798
 2407TIP3    H234145   5.703   5.334   1.630 -0.8254 -0.3743  0.1080
 2408TIP3   OH234146   4.568   1.059   0.536  0.1860  0.4189  0.1606
 2408TIP3    H134147   4.634   1.064   0.605  0.5826 -0.1805 -0.1710
 2408TIP3    H234148   4.559   1.150   0.506 -0.2006  0.7333  1.1845
 2409TIP3   OH234149   1.238   2.651   6.380  0.2891  0.5414  0.6521
 2409TIP3    H134150   1.321   2.682   6.416  0.9960 -0.8893  0.3233
 2409TIP3    H234151   1.186   2.626   6.457  1.4679 -1.6886  0.8012
 2410TIP3   OH234152   4.452   1.732   0.470  0.2429  0.2417  0.2508
 2410TIP3    H134153   4.486   1.655   0.515 -0.0307  0.3623  0.6654
 2410TIP3    H234154   4.370   1.702   0.430 -0.7664  0.7457  1.8531
 2411TIP3   OH234155   7.746   2.327   6.849 -0.2463 -0.2132 -0.3307
 2411TIP3    H134156   7.748   2.306   6.756  1.6377  0.4513 -0.4710
 2411TIP3    H234157   7.711   2.416   6.853  0.0014 -0.1122 -0.4275
 2412TIP3   OH234158   6.910   7.565   1.230  0.5727 -0.2473  0.0494
 2412TIP3    H134159   7.000   7.534   1.227  0.1291 -1.5410 -1.3663
 2412TIP3    H234160   6.917   7.659   1.243  2.2014 -0.0798 -1.5750
 2413TIP3   OH234161   0.865   0.364   6.996 -0.0605  0.3486 -0.1734
 2413TIP3    H134162   0.794   0.300   6.998 -1.0214  1.4132  1.1589
 2413TIP3    H234163   0.920   0.335   6.923 -2.0957 -0.2470 -1.5750
 2414TIP3   OH234164   3.664   1.722   0.548 -0.3004 -0.5481 -0.3551
 2414TIP3    H134165   3.589   1.674   0.585 -1.4637  1.5975  0.2120
 2414TIP3    H234166   3.630   1.761   0.467 -0.0428  1.0339  0.2684
 2415TIP3   OH234167   5.652   1.200   0.113 -0.0205 -0.1616 -0.3815
 2415TIP3    H134168   5.597   1.125   0.137  2.2859 -2.5351 -1.8983
 2415TIP3    H234169   5.628   1.220   0.022 -0.8774  1.2482  0.1285
 2416TIP3   OH234170   5.064   6.215   1.131  0.4199  0.1000  0.4324
 2416TIP3    H134171   5.057   6.141   1.191  1.4352  0.4873  1.0517
 2416TIP3    H234172   4.982   6.214   1.082  1.5269 -3.1447 -1.6100
 2417TIP3   OH234173   8.149   6.035   0.915  0.1890 -0.6489 -0.3646
 2417TIP3    H134174   8.232   6.010   0.873 -0.3653 -1.1577 -1.1722
 2417TIP3    H234175   8.082   6.011   0.852 -0.5122  0.8085 -0.2108
 2418TIP3   OH234176   2.686   3.553   6.367 -0.3682  0.2243  0.0211
 2418TIP3    H134177   2.591   3.545   6.373 -0.2691 -0.4675  0.8175
 2418TIP3    H234178   2.704   3.550   6.273 -0.8795 -3.0906 -0.0953
 2419TIP3   OH234179   1.834   5.807   6.456 -0.3724  0.1253 -0.0251
 2419TIP3    H134180   1.759   5.747   6.447 -1.0672  0.6143  2.0707
 2419TIP3    H234181   1.911   5.750   6.448 -0.9874 -1.5895  4.0240
 2420TIP3   OH234182   5.377   0.371   1.182  0.1833  0.2938 -0.3814
 2420TIP3    H134183   5.285   0.372   1.207  0.5589  0.6491  1.1148
 2420TIP3    H234184   5.381   0.424   1.102 -1.1473 -1.2504 -1.5240
 2421TIP3   OH234185   2.875   4.525   6.441 -0.6964  1.4176  0.0936
 2421TIP3    H134186   2.803   4.522   6.504  0.4235 -1.3879  1.3834
 2421TIP3    H234187   2.935   4.590   6.476 -1.1739  1.5551  0.6670
 2422TIP3   OH234188   7.438   7.548   6.613 -0.5851 -0.0264 -1.0812
 2422TIP3    H134189   7.501   7.559   6.543  1.3545  0.7023  0.6773
 2422TIP3    H234190   7.490   7.547   6.693 -2.6398 -1.3367  0.3596
 2423TIP3   OH234191   6.371   8.522   5.099 -0.3515  0.4187  0.4981
 2423TIP3    H134192   6.278   8.506   5.115 -0.0165 -1.4800  0.8423
 2423TIP3    H234193   6.415   8.448   5.142  1.1206 -0.4760 -2.2743
 2424TIP3   OH234194   3.256   3.903   6.695  0.2689  0.1384  0.4684
 2424TIP3    H134195   3.163   3.923   6.709  0.4923  1.2950  0.4453
 2424TIP3    H234196   3.273   3.825   6.747 -0.6674  0.0444  0.6413
 2425TIP3   OH234197   2.567   3.059   0.491  0.1031  0.4765 -0.4209
 2425TIP3    H134198   2.604   3.138   0.530  0.7872 -0.6992  1.4659
 2425TIP3    H234199   2.476   3.081   0.473 -0.1463  1.2419  1.5388
 2426TIP3   OH234200   6.107   6.748   6.017 -0.1076 -0.4948  0.0264
 2426TIP3    H134201   6.063   6.818   6.065  0.8150 -0.4025  0.7624
 2426TIP3    H234202   6.038   6.711   5.961 -1.3918 -1.0635  1.8899
 2427TIP3   OH234203   7.804   2.554   5.820  0.4067 -0.1994 -0.3574
 2427TIP3    H134204   7.712   2.533   5.833  0.5169 -0.4166  0.1081
 2427TIP3    H234205   7.818   2.636   5.867  1.1749 -1.7973  2.4263
 2428TIP3   OH234206   3.945   6.526   5.645 -0.7589 -0.4412  0.5309
 2428TIP3    H134207   4.018   6.523   5.582 -0.7915 -0.1192  0.4742
 2428TIP3    H234208   3.880   6.582   5.602 -0.3314  0.6893  1.3258
 2429TIP3   OH234209   3.451   1.407   5.611 -0.0115  0.3326  0.1725
 2429TIP3    H134210   3.464   1.342   5.680 -0.6559  0.3734  0.3405
 2429TIP3    H234211   3.357   1.408   5.597  0.2587 -1.2067 -2.2079
 2430TIP3   OH234212   2.565   6.348   6.468  0.0002  0.2341 -0.6101
 2430TIP3    H134213   2.564   6.373   6.560  0.4139 -4.1939  0.8247
 2430TIP3    H234214   2.654   6.317   6.452 -0.6172 -1.0520 -1.8137
 2431TIP3   OH234215   6.437   3.927   1.033  0.6447 -0.2431  0.2923
 2431TIP3    H134216   6.389   3.855   1.073  0.8227 -0.0234  0.9017
 2431TIP3    H234217   6.402   3.931   0.943 -0.2752 -0.2694  0.6319
 2432TIP3   OH234218   4.719   2.018   1.374  0.4417 -0.2151  0.1223
 2432TIP3    H134219   4.656   1.978   1.434 -1.1544  3.3577  1.0726
 2432TIP3    H234220   4.801   2.021   1.423 -0.2020  0.3724  1.1901
 2433TIP3   OH234221   3.167   7.868   0.922 -0.0130  0.1738  0.0516
 2433TIP3    H134222   3.122   7.790   0.887  0.5298 -0.7210  1.2599
 2433TIP3    H234223   3.246   7.833   0.964 -0.3308  1.2331  1.6159
 2434TIP3   OH234224   3.023   6.146   0.109 -0.0095 -0.1820  0.0275
 2434TIP3    H134225   3.049   6.230   0.071  0.7548 -0.8014 -0.8799
 2434TIP3    H234226   3.083   6.133   0.182 -1.5772  1.0822  1.6119
 2435TIP3   OH234227   5.805   5.624   6.883 -0.1610 -0.0771  0.4865
 2435TIP3    H134228   5.795   5.715   6.853 -0.7557  0.2788  1.7012
 2435TIP3    H234229   5.897   5.616   6.905  0.0209  0.0344 -0.2073
 2436TIP3   OH234230   0.744   4.346   6.458  0.7060 -0.0214  0.4828
 2436TIP3    H134231   0.772   4.334   6.367  1.2619 -0.2397  0.6814
 2436TIP3    H234232   0.648   4.342   6.454  0.7553 -1.0638  0.0555
 2437TIP3   OH234233   7.111   7.545   0.446 -0.4941  0.4243  0.1829
 2437TIP3    H134234   7.130   7.475   0.384  1.8231  0.5457  0.6731
 2437TIP3    H234235   7.025   7.523   0.482 -0.4651 -1.3589 -0.7279
 2438TIP3   OH234236   2.001   2.916   6.854  0.4868 -0.3878  0.4256
 2438TIP3    H134237   2.051   2.995   6.834 -0.5754  0.2251  0.1271
 2438TIP3    H234238   1.999   2.868   6.771 -0.8575  0.4170 -0.0262
 2439TIP3   OH234239   4.060   5.434   5.759  0.1080 -0.3924 -0.5868
 2439TIP3    H134240   4.143   5.407   5.720  2.1585  2.8744  1.0916
 2439TIP3    H234241   4.010   5.471   5.687  2.1954  1.9477 -0.9670
 2440TIP3   OH234242   6.010   5.297   0.290  1.0205  0.2931 -0.0702
 2440TIP3    H134243   5.991   5.211   0.252  1.7089 -2.3676  4.8185
 2440TIP3    H234244   5.930   5.348   0.275  0.1502 -1.5294 -2.1621
 2441TIP3   OH234245   2.392   1.249   7.042 -0.0406  0.1637  0.2814
 2441TIP3    H134246   2.486   1.259   7.024  0.0263  1.3101  1.1809
 2441TIP3    H234247   2.379   1.288   0.057 -1.9445  3.4630 -1.3103
 2442TIP3   OH234248   4.737   2.172   0.605  0.2613  0.0095  0.3627
 2442TIP3    H134249   4.730   2.223   0.685  1.0364  0.3439  0.2282
 2442TIP3    H234250   4.650   2.136   0.591  0.2410 -0.4760  1.6385
 2443TIP3   OH234251   8.117   0.837   6.924  0.8743  0.0185 -0.2131
 2443TIP3    H134252   8.063   0.856   6.848  0.9467  1.6473  0.1115
 2443TIP3    H234253   8.199   0.884   6.909  0.8293  0.5052  0.9317
 2444TIP3   OH234254   7.253   1.706   0.817 -0.0443  0.1415  0.3883
 2444TIP3    H134255   7.299   1.657   0.748  0.3434  0.7794  0.1876
 2444TIP3    H234256   7.200   1.770   0.769  0.4372  0.7738  0.6797
 2445TIP3   OH234257   3.017   3.385   0.285 -0.2576  0.6744 -0.2380
 2445TIP3    H134258   3.058   3.408   0.202  1.2399  0.2806  0.3620
 2445TIP3    H234259   2.986   3.295   0.273  3.0924 -0.7676  0.6518
 2446TIP3   OH234260   7.760   2.853   0.974  0.1408  0.2185 -0.7159
 2446TIP3    H134261   7.809   2.787   0.926  0.9829  2.0600 -2.5275
 2446TIP3    H234262   7.671   2.847   0.939  0.1415 -0.1515 -0.6555
 2447TIP3   OH234263   6.788   7.992   5.977  0.3369 -0.1336  0.1318
 2447TIP3    H134264   6.833   8.074   5.956  1.1123 -0.6920 -0.4534
 2447TIP3    H234265   6.695   8.014   5.972  0.4718  1.3350  2.5316
 2448TIP3   OH234266   8.489   7.986   5.830 -0.3182 -0.2166 -0.1418
 2448TIP3    H134267   8.532   8.041   5.895  0.1793 -1.2437  0.4218
 2448TIP3    H234268   8.525   7.898   5.844 -1.8856 -0.9256 -0.2741
 2449TIP3   OH234269   1.315   4.110   0.359  0.1334  0.8416 -0.0377
 2449TIP3    H134270   1.221   4.108   0.378 -0.0152  0.8684 -0.7315
 2449TIP3    H234271   1.339   4.202   0.371  0.2366  0.7081  0.8654
 2450TIP3   OH234272   8.042   5.150   0.164  0.2773 -0.3297 -0.0432
 2450TIP3    H134273   8.049   5.079   0.099 -0.3908  0.5019 -1.0552
 2450TIP3    H234274   7.951   5.146   0.194  0.5277 -0.5734  0.6999
 2451TIP3   OH234275   6.908   7.899   0.849 -0.2811  0.1283  0.1256
 2451TIP3    H134276   6.827   7.854   0.874 -0.1633  0.4650  1.1407
 2451TIP3    H234277   6.971   7.829   0.833 -1.2507 -0.2421 -2.5420
 2452TIP3   OH234278   7.674   7.823   6.738 -0.2481  0.0888  0.6484
 2452TIP3    H134279   7.661   7.917   6.751  2.7618  0.8994 -1.0652
 2452TIP3    H234280   7.696   7.815   6.645 -1.5727 -2.5177  0.4875
 2453TIP3   OH234281   1.236   6.766   5.721 -0.0323  0.6486  0.0036
 2453TIP3    H134282   1.292   6.700   5.761  0.3366 -0.5701 -2.3390
 2453TIP3    H234283   1.168   6.716   5.676 -1.2704  1.9894  0.2945
 2454TIP3   OH234284   6.578   5.904   0.277  0.0765  0.2821  0.1506
 2454TIP3    H134285   6.642   5.836   0.295  0.3128  0.6244  0.6212
 2454TIP3    H234286   6.506   5.887   0.338 -0.9730 -0.9846 -1.3601
 2455TIP3   OH234287   7.241   6.738   0.436 -0.0676 -0.3108 -0.7208
 2455TIP3    H134288   7.164   6.681   0.430 -0.4272  0.1547 -0.6477
 2455TIP3    H234289   7.315   6.678   0.448 -0.4874 -0.7302 -0.2050
 2456TIP3   OH234290   7.941   4.519   5.891  0.4132  0.2902 -0.2401
 2456TIP3    H134291   7.941   4.480   5.979 -0.8355 -2.0999 -1.2309
 2456TIP3    H234292   7.974   4.608   5.905 -0.3064  0.1931  2.7337
 2457TIP3   OH234293   4.660   1.318   1.575  0.2026 -0.2705  0.1254
 2457TIP3    H134294   4.652   1.414   1.567  0.4209 -0.3384 -1.0376
 2457TIP3    H234295   4.675   1.304   1.669 -0.0599  0.8154  0.3552
 2458TIP3   OH234296   5.420   3.348   6.794  0.2253  0.5728 -0.3855
 2458TIP3    H134297   5.418   3.440   6.819  0.2918  0.6037 -0.4936
 2458TIP3    H234298   5.505   3.336   6.752 -0.6201  0.9866 -2.3078
 2459TIP3   OH234299   3.318   5.007   5.668  0.2566 -0.0137 -0.2064
 2459TIP3    H134300   3.302   4.993   5.574  0.6089  0.6119 -0.3653
 2459TIP3    H234301   3.249   5.067   5.695  0.5021  0.2667 -0.1997
 2460TIP3   OH234302   3.596   2.802   0.894  0.1408 -0.0729 -0.0595
 2460TIP3    H134303   3.689   2.820   0.909  0.0622  0.1629  0.1614
 2460TIP3    H234304   3.569   2.749   0.970 -0.9420  3.4639  2.2899
 2461TIP3   OH234305   2.713   2.976   1.015 -0.1712 -0.6950  0.0860
 2461TIP3    H134306   2.677   3.001   1.100 -1.9322 -0.1142 -0.7800
 2461TIP3    H234307   2.721   2.881   1.019 -2.0883 -0.8733  0.2414
 2462TIP3   OH234308   7.404   1.145   1.783 -0.5082  0.5476 -0.5728
 2462TIP3    H134309   7.322   1.172   1.741  0.2633 -0.3872 -2.8555
 2462TIP3    H234310   7.470   1.205   1.747 -0.2525  1.9062  1.9526
 2463TIP3   OH234311   0.087   0.540   0.700  0.3365  0.4749  0.0059
 2463TIP3    H134312   0.008   0.519   0.651  0.2602  0.1392  0.2748
 2463TIP3    H234313   0.056   0.592   0.774  0.1263 -1.2546  1.1798
 2464TIP3   OH234314   6.705   3.333   6.904 -0.3837  0.0597  0.1792
 2464TIP3    H134315   6.754   3.332   6.986  1.6758 -1.2676 -0.9512
 2464TIP3    H234316   6.740   3.409   6.856  0.2412 -0.5831 -0.4168
 2465TIP3   OH234317   3.830   6.201   5.501  0.3285 -0.0782  0.1167
 2465TIP3    H134318   3.788   6.282   5.472  1.0408 -0.1258 -1.0915
 2465TIP3    H234319   3.761   6.155   5.549 -0.0461  1.3051  0.9886
 2466TIP3   OH234320   6.319   0.743   0.236  0.7274 -0.2930  0.3289
 2466TIP3    H134321   6.372   0.737   0.156  0.4913  0.4734  0.1074
 2466TIP3    H234322   6.379   0.779   0.301  0.9373 -0.9764  0.5129
 2467TIP3   OH234323   4.248   6.086   6.514  0.3869  0.0440 -0.1385
 2467TIP3    H134324   4.226   6.162   6.568  2.3359  2.4644 -2.4974
 2467TIP3    H234325   4.275   6.019   6.577 -0.5312  1.5757  2.0118
 2468TIP3   OH234326   2.160   2.002   0.311  0.3506  0.1571  0.4503
 2468TIP3    H134327   2.194   1.974   0.226 -0.3577  1.3289 -0.2406
 2468TIP3    H234328   2.226   2.063   0.344 -1.0064  2.5641 -0.9673
 2469TIP3   OH234329   1.523   6.478   0.164  0.1568  0.2938  0.2849
 2469TIP3    H134330   1.480   6.556   0.130 -1.0234 -0.3656  0.1767
 2469TIP3    H234331   1.604   6.509   0.203 -0.9250  1.7777  1.4553
 2470TIP3   OH234332   0.330   0.581   6.825  0.1636 -0.3355 -0.5418
 2470TIP3    H134333   0.392   0.512   6.851  2.3904  1.7155  0.0296
 2470TIP3    H234334   0.256   0.570   6.885  1.7134 -0.5851  1.4698
 2471TIP3   OH234335   3.608   3.804   6.247 -0.0261 -0.1640  0.2098
 2471TIP3    H134336   3.573   3.776   6.163  0.1683 -0.6843  0.3006
 2471TIP3    H234337   3.700   3.779   6.244  0.9463  3.0046 -0.8661
 2472TIP3   OH234338   1.139   4.298   1.144 -0.4266 -0.5014  1.1768
 2472TIP3    H134339   1.062   4.241   1.146  1.0030 -2.5499  1.4545
 2472TIP3    H234340   1.164   4.308   1.235 -1.0016  1.1465  1.1819
 2473TIP3   OH234341   6.652   7.037   0.273  0.4811  0.0798  0.6177
 2473TIP3    H134342   6.562   7.066   0.259  1.3217  1.8880 -1.9403
 2473TIP3    H234343   6.650   6.942   0.258 -0.6173  0.4588 -2.3882
 2474TIP3   OH234344   0.982   8.313   6.555  0.0688  0.6035 -0.7764
 2474TIP3    H134345   1.023   8.255   6.490  1.2440  0.0555  0.4016
 2474TIP3    H234346   1.012   8.279   6.639 -2.3635  0.5744  0.1449
 2475TIP3   OH234347   2.417   3.000   6.687 -0.1816  0.6744 -0.1666
 2475TIP3    H134348   2.327   3.033   6.696 -0.4016  0.0045  0.1130
 2475TIP3    H234349   2.430   2.945   6.764 -0.1362 -0.6272 -1.0830
 2476TIP3   OH234350   5.202   1.675   1.369  0.6199 -0.7528 -0.9329
 2476TIP3    H134351   5.142   1.601   1.365  0.8588 -1.1756  1.4033
 2476TIP3    H234352   5.150   1.746   1.408  1.2797 -0.7968  0.0949
 2477TIP3   OH234353   0.088   1.092   6.508 -0.4091 -0.4595 -0.3314
 2477TIP3    H134354   0.150   1.116   6.439 -0.1628 -1.3794 -0.4423
 2477TIP3    H234355   0.126   1.013   6.547 -1.2797 -0.7625 -0.0945
 2478TIP3   OH234356   2.658   1.039   0.547  0.3369  0.0178  0.0224
 2478TIP3    H134357   2.691   1.127   0.564 -0.6701  0.2227  1.0659
 2478TIP3    H234358   2.692   1.017   0.461  2.0194  0.7331  0.4602
 2479TIP3   OH234359   6.300   7.079   6.799 -0.1646 -0.2869  0.1917
 2479TIP3    H134360   6.288   7.058   6.707  0.9534  1.9669 -0.5492
 2479TIP3    H234361   6.342   7.002   6.836 -0.3199 -1.0964 -1.2433
 2480TIP3   OH234362   6.242   1.401   6.399  0.7539  0.0620  0.3497
 2480TIP3    H134363   6.327   1.388   6.357  0.9477  0.3912  0.6273
 2480TIP3    H234364   6.256   1.373   6.490  0.5050 -0.0928  0.3402
 2481TIP3   OH234365   0.500   4.162   0.676 -0.4010 -0.1954 -0.0241
 2481TIP3    H134366   0.537   4.156   0.588  1.2534 -1.3081  0.6833
 2481TIP3    H234367   0.453   4.079   0.688 -2.0898  0.6585 -0.4293
 2482TIP3   OH234368   0.645   1.597   6.797 -0.0297  0.2144 -0.5543
 2482TIP3    H134369   0.647   1.523   6.737  1.2684  1.1254 -1.7012
 2482TIP3    H234370   0.649   1.674   6.740  0.4311  1.1264  0.6639
 2483TIP3   OH234371   3.862   6.927   1.960 -0.0333 -0.1170  0.0633
 2483TIP3    H134372   3.813   6.911   1.879  0.0103 -1.4207  0.2772
 2483TIP3    H234373   3.812   6.880   2.027  0.1796  0.5798  0.7133
 2484TIP3   OH234374   0.611   8.511   0.187 -0.3192  0.3953  0.2748
 2484TIP3    H134375   0.536   8.462   0.153  0.0047  1.6066 -2.5301
 2484TIP3    H234376   0.669   8.444   0.223 -1.9622 -0.7274  0.9677
 2485TIP3   OH234377   7.520   4.097   6.619  0.2339 -0.2506  0.5196
 2485TIP3    H134378   7.496   4.160   6.687 -1.9630 -0.0256 -0.3764
 2485TIP3    H234379   7.559   4.151   6.550  0.2675 -0.1639  0.6041
 2486TIP3   OH234380   2.747   1.952   0.382 -0.2057 -0.3923  0.0454
 2486TIP3    H134381   2.841   1.937   0.394  0.2376  1.8294 -0.1657
 2486TIP3    H234382   2.736   2.046   0.398 -2.3276 -0.5173 -0.4279
 2487TIP3   OH234383   8.168   4.230   6.010  0.0278  0.6081  0.0241
 2487TIP3    H134384   8.221   4.220   5.931  1.0515 -0.3069  0.7886
 2487TIP3    H234385   8.192   4.155   6.065 -1.8752  0.3100  0.5305
 2488TIP3   OH234386   7.290   2.389   6.782  0.4258 -0.2559  0.0393
 2488TIP3    H134387   7.352   2.324   6.750  1.9289  0.3182  1.6389
 2488TIP3    H234388   7.313   2.469   6.734 -0.0232 -0.3711 -0.3789
 2489TIP3   OH234389   2.244   6.795   6.681 -0.4366 -0.0373  0.0727
 2489TIP3    H134390   2.288   6.786   6.765 -0.3093 -0.4834 -0.0396
 2489TIP3    H234391   2.256   6.710   6.638  4.0034  1.5106 -2.5492
 2490TIP3   OH234392   0.012   3.979   0.955  0.1245 -0.6963 -1.0099
 2490TIP3    H134393   0.063   3.917   0.903  1.3844 -1.2560  0.7546
 2490TIP3    H234394   8.469   3.931   0.980 -0.9508 -0.1143 -3.0514
 2491TIP3   OH234395   1.996   1.208   0.654 -0.3704  0.3323 -0.0215
 2491TIP3    H134396   2.044   1.128   0.675  0.1174  1.1364  2.2656
 2491TIP3    H234397   1.974   1.245   0.739  0.1755  3.0822 -0.9734
 2492TIP3   OH234398   4.517   0.317   1.081  0.4593 -0.5272 -0.2512
 2492TIP3    H134399   4.478   0.308   1.168  1.9875  0.7611  0.6213
 2492TIP3    H234400   4.607   0.287   1.092  0.3602 -1.4536 -1.7040
 2493TIP3   OH234401   4.270   7.563   0.586  0.3858 -0.0923  0.0034
 2493TIP3    H134402   4.297   7.542   0.497  1.4324 -0.7390  0.4473
 2493TIP3    H234403   4.321   7.640   0.610 -1.7920  1.7108 -0.8240
 2494TIP3   OH234404   7.195   6.287   1.281 -0.1468 -0.0846 -0.4441
 2494TIP3    H134405   7.121   6.258   1.334 -0.4448  1.0083 -0.2570
 2494TIP3    H234406   7.175   6.255   1.193  0.1688 -1.5744 -0.0187
 2495TIP3   OH234407   7.020   2.942   5.864 -0.2688  0.1543  1.1800
 2495TIP3    H134408   7.108   2.945   5.903  0.9950  0.4924 -1.4039
 2495TIP3    H234409   7.000   3.033   5.843 -0.5391 -0.0690  0.4128
 2496TIP3   OH234410   5.772   2.553   1.962  0.1955 -0.5752 -0.3401
 2496TIP3    H134411   5.707   2.582   2.025  0.0578 -0.1817 -0.6593
 2496TIP3    H234412   5.780   2.625   1.900 -0.4360 -1.3666 -1.3691
 2497TIP3   OH234413   5.318   5.297   6.318 -0.1243 -0.0657  0.0279
 2497TIP3    H134414   5.406   5.308   6.355 -0.5950  0.1102  1.1508
 2497TIP3    H234415   5.320   5.211   6.277  0.3054 -0.4481  0.8290
 2498TIP3   OH234416   1.271   3.567   6.075  0.1881  0.0877  0.2331
 2498TIP3    H134417   1.347   3.517   6.103  0.8861  0.2037 -1.3665
 2498TIP3    H234418   1.201   3.502   6.066  0.7604 -0.4150 -0.6495
 2499TIP3   OH234419   4.737   1.400   1.026  0.2215  0.2486 -0.0875
 2499TIP3    H134420   4.819   1.449   1.028  0.2147  0.3674 -1.5918
 2499TIP3    H234421   4.759   1.314   1.062  1.0243  0.2582 -0.5486
 2500TIP3   OH234422   2.503   7.457   6.899  0.2941 -0.1811 -0.4400
 2500TIP3    H134423   2.423   7.474   6.948  1.2213  2.6226  0.2706
 2500TIP3    H234424   2.482   7.483   6.809  0.5464  1.2002 -0.1226
 2501TIP3   OH234425   1.990   6.035   1.094 -0.5046  0.3586 -0.2173
 2501TIP3    H134426   2.082   6.061   1.099 -0.0660 -1.1549  0.3398
 2501TIP3    H234427   1.949   6.101   1.038  0.8477  1.2394 -0.2163
 2502TIP3   OH234428   2.471   2.565   5.812 -0.1087 -0.3140 -0.0655
 2502TIP3    H134429   2.379   2.556   5.788  0.0038  0.0056 -0.6389
 2502TIP3    H234430   2.477   2.525   5.899 -0.7701 -0.4067 -0.0552
 2503TIP3   OH234431   2.048   0.273   6.990 -0.2624  0.0312  0.1063
 2503TIP3    H134432   2.108   0.215   6.943  0.7718  0.9969  0.1877
 2503TIP3    H234433   1.979   0.215   7.022  0.1134 -0.9619 -0.8126
 2504TIP3   OH234434   0.276   2.770   6.313 -0.1867 -0.2673  0.3885
 2504TIP3    H134435   0.353   2.744   6.262  0.0683 -0.2002  0.7338
 2504TIP3    H234436   0.284   2.865   6.322 -1.3743  0.0252 -1.2877
 2505TIP3   OH234437   5.950   3.904   6.074 -0.0184  0.2187 -0.5220
 2505TIP3    H134438   5.954   3.822   6.123 -0.0612  0.3451 -0.3022
 2505TIP3    H234439   5.987   3.970   6.134 -0.1027  0.3817 -0.6469
 2506TIP3   OH234440   2.226   7.936   6.816  0.0436 -0.4022 -0.5030
 2506TIP3    H134441   2.148   7.980   6.850  0.6891  1.4003 -1.2590
 2506TIP3    H234442   2.192   7.856   6.776 -1.1021 -0.9109  1.3285
 2507TIP3   OH234443   6.832   2.774   7.054  0.1795  0.2513 -0.2392
 2507TIP3    H134444   6.852   2.785   6.961  4.0907  0.1593  0.4076
 2507TIP3    H234445   6.808   2.682   7.063 -0.5090  0.3283 -1.1677
 2508TIP3   OH234446   5.872   7.115   5.665 -0.1029  0.2368 -0.0910
 2508TIP3    H134447   5.814   7.132   5.739 -1.3486  0.0439 -0.9963
 2508TIP3    H234448   5.815   7.118   5.589  0.6182 -2.2018 -0.8268
 2509TIP3   OH234449   5.078   6.407   6.704 -0.4180 -0.9213 -0.2751
 2509TIP3    H134450   4.996   6.442   6.739  0.3234 -0.0227  0.6159
 2509TIP3    H234451   5.117   6.481   6.657  0.3705 -1.0412  0.1834
 2510TIP3   OH234452   0.176   4.673   4.915  0.4648 -0.5161  0.0412
 2510TIP3    H134453   0.117   4.714   4.853  0.1344 -0.5575  0.3240
 2510TIP3    H234454   0.261   4.715   4.900  0.9100 -1.9298 -1.8466
 2511TIP3   OH234455   4.167   6.562   5.465 -0.2992 -0.3915  0.0049
 2511TIP3    H134456   4.159   6.501   5.392  0.1112 -1.4316  0.8000
 2511TIP3    H234457   4.246   6.612   5.445  1.1176 -2.1848  0.7571
 2512TIP3   OH234458   6.070   5.198   6.436 -0.3402 -0.1989 -0.3496
 2512TIP3    H134459   6.028   5.113   6.425  0.0009 -0.3206 -0.7602
 2512TIP3    H234460   6.066   5.215   6.530  2.1334 -2.0103  0.1935
 2513TIP3   OH234461   5.973   4.320   5.710  0.0912 -0.1499 -0.2396
 2513TIP3    H134462   6.045   4.372   5.674  0.6175 -1.3157 -0.9103
 2513TIP3    H234463   5.938   4.374   5.782  0.4231  1.2492 -1.0861
 2514TIP3   OH234464   3.109   3.610   1.248 -0.7713  0.6795  0.0090
 2514TIP3    H134465   3.086   3.518   1.260  0.9999 -0.0107 -1.4616
 2514TIP3    H234466   3.027   3.652   1.221 -2.0037 -0.0541  2.2832
 2515TIP3   OH234467   2.459   6.155   0.180 -0.2847  0.1908  0.6101
 2515TIP3    H134468   2.493   6.111   0.258 -0.3908  0.6564  0.9223
 2515TIP3    H234469   2.389   6.097   0.149  1.1529 -1.1062 -0.4052
 2516TIP3   OH234470   5.376   8.214   6.570  0.0722 -0.4537  0.4421
 2516TIP3    H134471   5.285   8.231   6.547 -0.1288 -0.6314  1.0931
 2516TIP3    H234472   5.384   8.119   6.568 -0.0406 -0.4887  1.4387
 2517TIP3   OH234473   7.350   6.694   6.555 -0.1712 -0.0052  0.1553
 2517TIP3    H134474   7.424   6.688   6.495  0.2996 -0.0424  0.7398
 2517TIP3    H234475   7.293   6.761   6.515  0.7608  0.9191  0.3264
 2518TIP3   OH234476   4.429   4.681   0.539 -0.4447  0.0862  0.0041
 2518TIP3    H134477   4.386   4.599   0.566  1.3468 -0.9575 -0.1777
 2518TIP3    H234478   4.380   4.749   0.585 -1.1447 -1.1817  1.2309
 2519TIP3   OH234479   6.453   4.666   1.078  0.3273 -0.3128 -0.4652
 2519TIP3    H134480   6.371   4.669   1.030  0.9450 -0.3385 -1.5540
 2519TIP3    H234481   6.461   4.754   1.117 -0.8619 -0.7425  0.8064
 2520TIP3   OH234482   0.709   4.448   0.815 -0.3071  0.1231  0.1881
 2520TIP3    H134483   0.799   4.432   0.787  0.2856  0.8976  1.5596
 2520TIP3    H234484   0.688   4.373   0.871 -0.2674  0.2773  0.4115
 2521TIP3   OH234485   0.757   8.350   0.793  0.6526 -0.5963  0.3464
 2521TIP3    H134486   0.841   8.328   0.752  0.9737  0.6077  0.3372
 2521TIP3    H234487   0.779   8.365   0.885  0.6996  1.0581  0.0858
 2522TIP3   OH234488   0.282   8.076   0.397 -0.4714 -0.3115  0.2167
 2522TIP3    H134489   0.232   8.134   0.453 -0.1885 -0.4424  0.6133
 2522TIP3    H234490   0.371   8.112   0.399 -0.7436  0.5356 -1.3127
 2523TIP3   OH234491   4.304   3.650   6.543 -0.4375 -0.6393 -0.0761
 2523TIP3    H134492   4.332   3.680   6.630 -0.0126 -0.0371 -0.4148
 2523TIP3    H234493   4.304   3.554   6.550  0.7958 -0.6414  0.2227
 2524TIP3   OH234494   0.447   1.994   0.657 -0.6758 -0.4125  0.2652
 2524TIP3    H134495   0.384   1.924   0.640 -2.9431  1.4761  0.4025
 2524TIP3    H234496   0.416   2.068   0.605  0.5120  1.0934  1.5758
 2525TIP3   OH234497   1.232   1.184   5.580  0.5470  0.3138 -0.0185
 2525TIP3    H134498   1.297   1.216   5.517  1.5876  0.5764  1.1537
 2525TIP3    H234499   1.237   1.089   5.573 -0.8090  0.3171 -1.7567
 2526TIP3   OH234500   2.937   1.486   6.704  0.5997  0.3803  0.1424
 2526TIP3    H134501   2.874   1.490   6.776 -1.8237  0.1638 -1.8450
 2526TIP3    H234502   2.949   1.578   6.678 -1.3392  0.2580 -1.3937
 2527TIP3   OH234503   1.858   6.714   6.255 -0.1101 -0.1781  0.1125
 2527TIP3    H134504   1.871   6.628   6.296  1.4756 -1.4085 -2.6353
 2527TIP3    H234505   1.782   6.702   6.198 -0.5325  0.5746  0.5150
 2528TIP3   OH234506   7.808   4.960   5.846  0.0532  0.6007  0.0142
 2528TIP3    H134507   7.733   4.923   5.801  0.1833  0.2317  0.0906
 2528TIP3    H234508   7.846   5.021   5.784 -0.5444  1.0906  0.1298
 2529TIP3   OH234509   7.124   7.006   1.245 -0.0722  0.3119  0.3159
 2529TIP3    H134510   7.108   6.963   1.329 -3.8525 -0.6690 -0.7251
 2529TIP3    H234511   7.062   7.079   1.243 -1.3592 -0.7062 -2.1951
 2530TIP3   OH234512   5.490   8.069   6.265  0.9910  0.2631 -0.1092
 2530TIP3    H134513   5.541   8.137   6.222 -0.2729  3.3619  2.9056
 2530TIP3    H234514   5.542   8.044   6.341  0.4737 -0.6574 -0.0413
 2531TIP3   OH234515   7.955   5.061   5.054 -0.3322 -0.0019  0.0612
 2531TIP3    H134516   8.023   5.016   5.105 -0.2439  0.8165  0.6891
 2531TIP3    H234517   8.004   5.117   4.994 -0.4161 -1.6755 -1.6418
 2532TIP3   OH234518   2.673   2.053   5.000  0.3423  0.1416 -0.7075
 2532TIP3    H134519   2.618   2.076   4.924  1.7558  0.4434 -1.6824
 2532TIP3    H234520   2.652   1.961   5.018 -0.3718  0.2093 -1.1436
 2533TIP3   OH234521   0.733   0.021   0.608 -0.0277  0.0459  0.2331
 2533TIP3    H134522   0.762   0.102   0.649 -2.9776  0.3308  2.0111
 2533TIP3    H234523   0.764   8.487   0.667  0.4521  0.0439 -0.0186
 2534TIP3   OH234524   6.473   0.095   1.546 -0.4403 -0.5250 -0.2281
 2534TIP3    H134525   6.453   0.093   1.639  1.9666 -0.7961  0.3467
 2534TIP3    H234526   6.510   0.009   1.528  0.0664 -0.1166 -1.1989
 2535TIP3   OH234527   7.174   0.199   0.289  0.1741 -0.3113 -0.1168
 2535TIP3    H134528   7.268   0.195   0.277 -0.0337 -0.8642 -1.8474
 2535TIP3    H234529   7.160   0.179   0.381  1.6337 -2.2965 -0.2805
 2536TIP3   OH234530   5.775   1.608   7.052 -0.7199 -0.0111 -0.6195
 2536TIP3    H134531   5.785   1.516   0.005 -2.4630 -0.0771 -0.0178
 2536TIP3    H234532   5.741   1.607   6.963  2.2519  0.1686 -1.8630
 2537TIP3   OH234533   3.320   5.150   0.491  0.5759 -0.5384  0.1605
 2537TIP3    H134534   3.340   5.113   0.405  0.6395 -1.0727  0.4024
 2537TIP3    H234535   3.227   5.129   0.505  0.8023 -1.2444  0.6130
 2538TIP3   OH234536   6.088   4.613   1.425 -0.8480 -0.9746 -0.7778
 2538TIP3    H134537   6.009   4.663   1.444  0.8154  0.8003  2.1761
 2538TIP3    H234538   6.156   4.679   1.415  0.6403 -2.5240 -1.4284
 2539TIP3   OH234539   3.062   2.630   6.942  0.1685 -0.0535  1.1153
 2539TIP3    H134540   3.123   2.703   6.935 -1.1648  1.1058  1.2441
 2539TIP3    H234541   3.003   2.640   6.868  2.0574 -3.0996 -1.0444
 2540TIP3   OH234542   1.579   6.054   0.134 -0.5137 -0.2524 -0.4664
 2540TIP3    H134543   1.537   6.068   0.219 -0.1959  0.1252 -0.3677
 2540TIP3    H234544   1.624   6.136   0.116  0.0994 -0.6092 -0.6116
 2541TIP3   OH234545   7.709   2.225   6.174 -0.0497  0.4363 -0.2117
 2541TIP3    H134546   7.694   2.192   6.085  0.3571  3.5768 -1.5926
 2541TIP3    H234547   7.647   2.177   6.228 -0.2421 -1.6794 -2.1407
 2542TIP3   OH234548   0.407   4.651   1.475  0.1003  0.8170  0.2140
 2542TIP3    H134549   0.431   4.743   1.461  1.7919  0.3137 -0.4890
 2542TIP3    H234550   0.319   4.655   1.511  0.7797  2.7913  1.8833
 2543TIP3   OH234551   6.594   5.150   6.476  0.2276 -0.0292 -0.0608
 2543TIP3    H134552   6.665   5.089   6.453  3.3969  3.3514 -0.2561
 2543TIP3    H234553   6.617   5.181   6.563 -0.8952  1.3715 -0.2329
 2544TIP3   OH234554   7.373   7.697   1.769  0.2197 -0.2411 -0.3166
 2544TIP3    H134555   7.383   7.604   1.789  1.0412 -0.2488 -0.7430
 2544TIP3    H234556   7.286   7.719   1.802 -0.4838 -1.4462 -1.2855
 2545TIP3   OH234557   1.931   5.880   6.138  0.5948 -0.7450  0.6983
 2545TIP3    H134558   1.994   5.911   6.074  0.9115 -0.9983  0.8852
 2545TIP3    H234559   1.944   5.785   6.141 -0.2537 -0.8851  0.2500
 2546TIP3   OH234560   5.280   0.732   6.803  0.2961  0.0395  0.7621
 2546TIP3    H134561   5.274   0.767   6.892 -0.5411  0.2903  0.6175
 2546TIP3    H234562   5.208   0.774   6.757 -0.3108 -1.3714  0.3910
 2547TIP3   OH234563   0.481   3.101   5.824 -0.2035 -0.2416  0.4418
 2547TIP3    H134564   0.493   3.172   5.888  0.4496 -0.6218  0.7505
 2547TIP3    H234565   0.412   3.133   5.766  1.7614  1.7628 -0.9689
 2548TIP3   OH234566   1.756   3.748   5.344 -0.6363  0.5985 -0.0620
 2548TIP3    H134567   1.667   3.783   5.353 -0.1746  1.8679 -0.2262
 2548TIP3    H234568   1.805   3.819   5.302  0.6822  0.2878  0.8978
 2549TIP3   OH234569   3.622   6.731   1.076 -0.3679  0.0299 -0.0603
 2549TIP3    H134570   3.629   6.801   1.141  1.2274  0.9079 -1.1203
 2549TIP3    H234571   3.636   6.774   0.992 -0.4624 -1.3905 -0.8443
 2550TIP3   OH234572   2.582   4.458   0.397 -0.4772  0.0966 -0.1259
 2550TIP3    H134573   2.489   4.470   0.382 -0.1833  0.1541 -2.3010
 2550TIP3    H234574   2.603   4.377   0.350  0.6649  0.4051 -0.1756
 2551TIP3   OH234575   7.939   6.665   6.392  0.0660 -0.7089  0.3338
 2551TIP3    H134576   8.008   6.662   6.457 -0.1536  0.0383  0.6072
 2551TIP3    H234577   7.895   6.580   6.400 -0.7630 -0.1737  2.0709
 2552TIP3   OH234578   5.426   7.485   5.098 -0.0925 -0.4568  0.0530
 2552TIP3    H134579   5.375   7.516   5.023 -0.4629  0.3619  0.6283
 2552TIP3    H234580   5.386   7.528   5.174  1.0323 -0.3205  0.5866
 2553TIP3   OH234581   7.582   7.983   1.119 -0.5057 -0.1476  0.5958
 2553TIP3    H134582   7.517   7.915   1.100  0.5674 -0.9651 -0.2588
 2553TIP3    H234583   7.562   8.053   1.057  2.0314 -2.1756 -2.8727
 2554TIP3   OH234584   2.993   0.089   0.299  0.2186 -0.0983  0.3662
 2554TIP3    H134585   2.954   0.028   0.361  0.1352  1.1825  1.6339
 2554TIP3    H234586   2.972   0.053   0.213 -0.4091 -1.4722  1.0669
 2555TIP3   OH234587   5.157   7.768   6.911  0.0965 -0.3061 -0.3909
 2555TIP3    H134588   5.143   7.863   6.908  0.0984 -0.2996 -0.1685
 2555TIP3    H234589   5.199   7.747   6.827 -1.2676 -0.3214 -1.1018
 2556TIP3   OH234590   4.647   8.302   0.384  0.7001  0.0303 -0.5395
 2556TIP3    H134591   4.584   8.372   0.403  1.3442  0.2867  0.7555
 2556TIP3    H234592   4.721   8.320   0.442  0.5755 -2.1259  0.4035
 2557TIP3   OH234593   7.686   5.222   1.096 -0.4877 -1.0142 -0.0272
 2557TIP3    H134594   7.616   5.158   1.084 -2.2183  0.4746  1.4893
 2557TIP3    H234595   7.671   5.288   1.029  0.6984 -1.6523 -0.9578
 2558TIP3   OH234596   7.501   3.311   0.680  0.2231  0.0170  0.7464
 2558TIP3    H134597   7.424   3.322   0.623  0.4298  0.6965  0.5916
 2558TIP3    H234598   7.572   3.291   0.620  0.4356  0.7060  0.7581
 2559TIP3   OH234599   6.988   1.329   0.809  0.5446 -0.1847  1.0511
 2559TIP3    H134600   7.069   1.380   0.806  1.0430 -0.9689  0.7966
 2559TIP3    H234601   7.018   1.238   0.819 -0.1712 -0.8127 -1.6336
 2560TIP3   OH234602   0.927   1.249   6.897 -0.0210 -0.0368 -1.0006
 2560TIP3    H134603   0.992   1.217   6.958  0.2431  1.9205 -0.2007
 2560TIP3    H234604   0.856   1.184   6.901  1.4695 -1.7651 -1.2880
 2561TIP3   OH234605   5.003   3.958   0.760 -0.3425 -0.0221 -0.7847
 2561TIP3    H134606   4.994   3.903   0.837 -0.8460  0.4880 -0.4746
 2561TIP3    H234607   5.059   4.031   0.788 -0.9129  0.4152 -0.7508
 2562TIP3   OH234608   4.222   4.450   6.288  0.1881  0.6116  0.1516
 2562TIP3    H134609   4.254   4.531   6.327  1.2378 -0.6498  2.0966
 2562TIP3    H234610   4.126   4.458   6.291  0.2813  1.6958  0.4716
 2563TIP3   OH234611   6.672   2.516   5.327  0.7694  0.2146  0.4739
 2563TIP3    H134612   6.732   2.558   5.388  1.1622 -0.7703  0.7873
 2563TIP3    H234613   6.694   2.553   5.241  1.0447  0.6963  0.7524
 2564TIP3   OH234614   4.741   7.117   6.167 -0.4093  0.5770  0.5763
 2564TIP3    H134615   4.818   7.164   6.199 -1.0991  0.8946  1.8749
 2564TIP3    H234616   4.697   7.179   6.109  0.9139 -0.0393 -1.1504
 2565TIP3   OH234617   0.292   3.037   1.472 -0.3045  0.3031 -0.5640
 2565TIP3    H134618   0.222   2.972   1.463 -1.2514  1.1120  0.6024
 2565TIP3    H234619   0.333   3.018   1.557 -0.6722  1.2685 -0.1468
 2566TIP3   OH234620   5.220   7.776   0.187  0.1038 -0.6683 -0.3650
 2566TIP3    H134621   5.212   7.859   0.140 -0.0609 -1.6316 -2.1326
 2566TIP3    H234622   5.133   7.762   0.226  0.2517  0.1629  0.2908
 2567TIP3   OH234623   1.866   6.202   0.896 -0.3012  0.0954  0.5126
 2567TIP3    H134624   1.953   6.228   0.866 -0.0804 -0.3400  0.7683
 2567TIP3    H234625   1.806   6.251   0.840  0.1096  0.0098 -0.0175
 2568TIP3   OH234626   5.933   5.545   0.711 -0.1337  0.1610 -0.2733
 2568TIP3    H134627   5.918   5.511   0.622  2.1554 -0.8031 -0.3435
 2568TIP3    H234628   5.958   5.468   0.762  1.1355  1.0930  0.5714
 2569TIP3   OH234629   6.415   8.492   5.826 -0.0496 -0.6174  0.0697
 2569TIP3    H134630   6.463   8.412   5.804 -0.8563 -1.2774  0.6334
 2569TIP3    H234631   6.333   8.485   5.777 -0.5362 -0.6167  0.8650
 2570TIP3   OH234632   1.291   7.773   6.396 -0.0900 -0.6127  0.3820
 2570TIP3    H134633   1.326   7.832   6.329  1.1355 -0.5590  1.0474
 2570TIP3    H234634   1.323   7.808   6.479 -1.3459 -0.8462  0.9959
 2571TIP3   OH234635   5.231   1.134   0.374  0.1783  0.4643 -0.4883
 2571TIP3    H134636   5.166   1.076   0.333 -0.1963  1.2978 -1.1099
 2571TIP3    H234637   5.299   1.075   0.406 -0.2553 -0.3310 -0.9892
 2572TIP3   OH234638   1.035   2.345   1.063 -0.7048 -0.3871 -0.0977
 2572TIP3    H134639   1.091   2.268   1.072 -0.5176 -1.0439 -4.4799
 2572TIP3    H234640   1.096   2.416   1.043 -1.0086  0.5949  2.2525
 2573TIP3   OH234641   3.049   4.405   6.635 -0.1141 -0.6193  0.3440
 2573TIP3    H134642   2.996   4.385   6.558  0.2867 -0.0723 -0.0814
 2573TIP3    H234643   3.135   4.369   6.615 -0.0765 -0.7013  0.6470
 2574TIP3   OH234644   4.634   3.333   0.574 -0.2613 -0.0661 -0.5437
 2574TIP3    H134645   4.651   3.375   0.659 -0.4132 -0.6549 -0.2133
 2574TIP3    H234646   4.563   3.385   0.536  0.5902  0.9183 -0.8430
 2575TIP3   OH234647   7.546   1.944   6.552  0.0895 -0.3480 -0.0919
 2575TIP3    H134648   7.563   1.969   6.643 -0.4505  0.1091 -0.1127
 2575TIP3    H234649   7.617   1.883   6.530  0.6697  0.1423  0.3906
 2576TIP3   OH234650   0.224   7.598   6.894 -0.1283 -0.6897  0.2374
 2576TIP3    H134651   0.195   7.689   6.893 -0.3469 -0.7575  0.4416
 2576TIP3    H234652   0.268   7.587   6.978  2.1702 -0.0626 -0.8000
 2577TIP3   OH234653   6.697   7.345   1.916  0.3048  0.0336  0.1716
 2577TIP3    H134654   6.668   7.363   1.827  0.6523  0.4532  0.1404
 2577TIP3    H234655   6.646   7.404   1.971 -1.4317 -1.6614  0.4814
 2578TIP3   OH234656   1.842   6.689   5.682 -0.1545  0.0870 -0.2646
 2578TIP3    H134657   1.808   6.602   5.700 -1.6805  0.8295  0.6911
 2578TIP3    H234658   1.906   6.705   5.751  1.9851 -1.1556 -1.8302
 2579TIP3   OH234659   3.895   1.699   1.215  0.2038  0.3635 -0.1310
 2579TIP3    H134660   3.940   1.699   1.300 -1.8255  1.5603  1.0370
 2579TIP3    H234661   3.861   1.610   1.206  0.8476  0.0906  0.0743
 2580TIP3   OH234662   3.304   2.818   6.400 -0.3816 -0.0308 -0.7360
 2580TIP3    H134663   3.289   2.785   6.489 -0.9107 -0.0588 -0.8324
 2580TIP3    H234664   3.231   2.879   6.385  0.5349  1.1508 -0.5823
 2581TIP3   OH234665   6.957   7.670   5.104  0.2635 -0.1032  0.1068
 2581TIP3    H134666   6.925   7.713   5.024  0.8757  0.0313 -0.0728
 2581TIP3    H234667   6.882   7.668   5.162 -0.3048 -0.5786 -0.6322
 2582TIP3   OH234668   7.840   5.223   0.636  0.2687  0.5026  0.2645
 2582TIP3    H134669   7.866   5.311   0.665  3.7971  0.3435 -1.9078
 2582TIP3    H234670   7.827   5.174   0.717  1.2317  2.2351  1.5401
 2583TIP3   OH234671   1.878   3.777   6.590 -0.3878  0.4601 -0.0011
 2583TIP3    H134672   1.912   3.706   6.534 -1.3941 -0.2706  0.2854
 2583TIP3    H234673   1.913   3.757   6.677 -0.3984  0.5042  0.0132
 2584TIP3   OH234674   2.445   0.969   6.544 -0.0890 -0.1992  0.7753
 2584TIP3    H134675   2.355   1.000   6.537 -0.6618 -1.2581  2.7154
 2584TIP3    H234676   2.440   0.895   6.604  2.2602  0.4516  1.8775
 2585TIP3   OH234677   6.160   6.037   6.914  0.2510 -0.6865  0.2653
 2585TIP3    H134678   6.162   6.080   6.829  0.9970 -0.3439  0.4410
 2585TIP3    H234679   6.075   6.059   6.951 -0.0602 -0.8039 -0.3716
 2586TIP3   OH234680   0.605   0.904   0.636 -0.4570  0.3366 -0.4791
 2586TIP3    H134681   0.639   0.859   0.713 -0.4579 -1.0823 -1.2727
 2586TIP3    H234682   0.543   0.968   0.671  1.2878  1.3886  0.8330
 2587TIP3   OH234683   6.378   8.001   1.508  0.2335 -0.1511 -0.1703
 2587TIP3    H134684   6.461   7.955   1.514 -0.3488 -1.1446  0.4126
 2587TIP3    H234685   6.343   8.000   1.597  0.3139  1.6549 -0.0709
 2588TIP3   OH234686   2.797   7.874   6.097 -0.1659  0.1342 -0.6784
 2588TIP3    H134687   2.766   7.958   6.062  1.5780  1.7629  1.3658
 2588TIP3    H234688   2.801   7.816   6.021  1.7708  2.8942 -2.8921
 2589TIP3   OH234689   3.371   2.992   0.799 -0.1834 -0.2439  0.5471
 2589TIP3    H134690   3.449   2.953   0.838  0.5643 -1.3910 -1.8754
 2589TIP3    H234691   3.400   3.077   0.767 -0.6768  0.4901  1.9341
 2590TIP3   OH234692   0.019   5.125   6.136  0.7641  0.2417  0.8421
 2590TIP3    H134693   0.051   5.174   6.212 -0.2153 -2.0886  2.9073
 2590TIP3    H234694   0.081   5.053   6.126  0.0317 -0.3503  0.4412
 2591TIP3   OH234695   4.713   7.361   6.005  0.3117  0.3091 -0.5839
 2591TIP3    H134696   4.636   7.342   5.953  0.6324 -1.3525 -0.4859
 2591TIP3    H234697   4.783   7.373   5.940  1.2701 -4.1593 -0.6724
 2592TIP3   OH234698   8.314   5.414   6.159  0.0944  0.3564  0.5683
 2592TIP3    H134699   8.236   5.412   6.103  0.3760  0.9205  0.1462
 2592TIP3    H234700   8.285   5.375   6.241  0.0675 -1.8305 -0.4250
 2593TIP3   OH234701   5.165   7.199   6.485 -0.2154  0.1950 -0.4291
 2593TIP3    H134702   5.087   7.162   6.527  0.1942 -1.8981 -1.3939
 2593TIP3    H234703   5.182   7.280   6.534 -2.9249  0.6977 -0.1564
 2594TIP3   OH234704   8.089   3.573   5.797 -0.1864 -0.3079 -0.1195
 2594TIP3    H134705   8.139   3.541   5.872  0.2974  0.0576 -0.2781
 2594TIP3    H234706   8.027   3.503   5.776  1.5640 -1.6165 -1.1588
 2595TIP3   OH234707   1.283   4.191   0.930  0.1069  0.4694 -0.1729
 2595TIP3    H134708   1.238   4.253   0.989 -0.5586  1.8376 -2.0254
 2595TIP3    H234709   1.267   4.105   0.969 -0.5168  1.2805  1.4904
 2596TIP3   OH234710   1.010   8.427   5.567 -0.0172  0.6331  0.3555
 2596TIP3    H134711   1.087   8.397   5.616  0.2746  0.0053 -0.4823
 2596TIP3    H234712   1.008   8.522   5.582  0.5433  0.5617  0.9107
 2597TIP3   OH234713   3.183   3.664   0.144  0.0554 -0.1499 -0.3822
 2597TIP3    H134714   3.194   3.749   0.102 -0.7152  0.8021  1.2424
 2597TIP3    H234715   3.095   3.667   0.182 -0.1292 -1.8276 -0.5959
 2598TIP3   OH234716   2.463   7.582   0.931 -0.4976 -0.3183 -0.1815
 2598TIP3    H134717   2.426   7.538   0.855  2.0869 -1.0665 -1.1022
 2598TIP3    H234718   2.505   7.661   0.896  1.2490 -0.9753  0.2867
 2599TIP3   OH234719   0.510   0.903   0.352  0.3332  0.6636 -0.0308
 2599TIP3    H134720   0.543   0.899   0.441  1.9468  3.0037 -0.4476
 2599TIP3    H234721   0.562   0.839   0.303 -2.1530 -2.4246  1.0212
 2600TIP3   OH234722   3.112   4.640   6.773  0.0505  0.8188 -0.0006
 2600TIP3    H134723   3.169   4.653   6.697 -0.3007  0.3779 -0.3424
 2600TIP3    H234724   3.056   4.567   6.749  0.4095  0.2069  0.9668
 2601TIP3   OH234725   3.359   6.011   5.856 -0.3919  0.6188  0.0505
 2601TIP3    H134726   3.372   6.080   5.791  1.7249  2.5461  2.3382
 2601TIP3    H234727   3.342   6.058   5.938  0.4770 -1.5723  1.5907
 2602TIP3   OH234728   5.642   5.977   0.761 -0.1627  0.6760  0.4057
 2602TIP3    H134729   5.626   5.899   0.814  0.8212  0.4468  0.3931
 2602TIP3    H234730   5.737   5.977   0.747 -0.2592  1.4002 -0.3258
 2603TIP3   OH234731   6.482   5.006   1.157 -0.2943 -0.0313 -0.0863
 2603TIP3    H134732   6.475   5.086   1.104  2.4940 -0.9354 -1.9956
 2603TIP3    H234733   6.516   5.036   1.241 -0.0825  0.8761 -0.4856
 2604TIP3   OH234734   4.226   1.799   6.687 -0.0115 -0.2689 -0.3356
 2604TIP3    H134735   4.306   1.769   6.645  0.2729 -0.4067  0.2910
 2604TIP3    H234736   4.162   1.730   6.670 -0.1175  0.0300 -1.1849
 2605TIP3   OH234737   7.389   6.010   5.358 -0.5671 -0.2374  0.5124
 2605TIP3    H134738   7.342   6.038   5.437 -1.3214 -1.1750  0.4089
 2605TIP3    H234739   7.327   6.024   5.287  0.5421  1.7761 -0.1147
 2606TIP3   OH234740   5.213   8.361   6.170 -0.5992 -0.1384 -0.4528
 2606TIP3    H134741   5.274   8.363   6.244 -0.2683 -1.2611 -0.6849
 2606TIP3    H234742   5.131   8.394   6.207 -0.2253  0.0788  0.2104
 2607TIP3   OH234743   0.342   2.224   7.053 -0.6790  0.4795 -0.4998
 2607TIP3    H134744   0.339   2.173   0.064 -2.0214  0.7026 -0.3898
 2607TIP3    H234745   0.297   2.169   6.989  3.8043 -1.6121 -2.3062
 2608TIP3   OH234746   3.015   3.153   0.511 -0.0334 -0.4224 -0.1932
 2608TIP3    H134747   3.095   3.188   0.550  0.7257 -0.2433 -1.8171
 2608TIP3    H234748   2.946   3.214   0.538  0.1593 -1.1191  2.0344
 2609TIP3   OH234749   6.642   2.658   1.113  0.2503  0.3662 -0.1371
 2609TIP3    H134750   6.718   2.694   1.068 -0.5531  0.1491 -1.7472
 2609TIP3    H234751   6.573   2.657   1.047 -1.4294  1.3779  1.5174
 2610TIP3   OH234752   5.773   8.220   0.420 -0.2320 -0.7881  0.8467
 2610TIP3    H134753   5.688   8.263   0.408 -0.8462 -0.8922  4.0511
 2610TIP3    H234754   5.818   8.275   0.484  2.1541 -0.7888 -0.7049
 2611TIP3   OH234755   1.250   6.557   6.341  0.7034 -0.0420  0.0362
 2611TIP3    H134756   1.259   6.472   6.298 -2.1641 -1.1924  1.4169
 2611TIP3    H234757   1.156   6.574   6.339  1.1110  2.6525  0.6960
 2612TIP3   OH234758   2.858   3.094   1.578  0.0215 -0.5104  0.2283
 2612TIP3    H134759   2.781   3.103   1.635  0.7320  0.3615  1.1018
 2612TIP3    H234760   2.830   3.131   1.494 -0.2978  0.5437  0.7651
 2613TIP3   OH234761   2.515   2.059   6.193  0.1659 -0.1763  0.0313
 2613TIP3    H134762   2.452   2.110   6.244  0.6068  0.1985  0.2069
 2613TIP3    H234763   2.571   2.124   6.152 -0.6524 -0.4418 -1.5817
 2614TIP3   OH234764   0.343   1.854   0.330 -0.6754  0.1499 -0.4786
 2614TIP3    H134765   0.249   1.872   0.339 -0.4328  2.4730 -1.6794
 2614TIP3    H234766   0.382   1.940   0.314  1.5973 -0.8346 -0.5961
 2615TIP3   OH234767   4.786   5.792   0.543 -0.3438  0.4388  0.2222
 2615TIP3    H134768   4.826   5.835   0.467  0.2698 -0.0637  0.2465
 2615TIP3    H234769   4.780   5.700   0.517 -0.5764  0.3481  0.5980
 2616TIP3   OH234770   5.500   5.305   0.834  0.0774 -0.1820 -0.4553
 2616TIP3    H134771   5.526   5.214   0.849 -0.5402 -0.5850 -1.6490
 2616TIP3    H234772   5.470   5.336   0.919  1.2125 -0.7840  0.1811
 2617TIP3   OH234773   2.469   8.195   5.301  0.7378  0.5368  0.3342
 2617TIP3    H134774   2.520   8.141   5.361  1.0699 -0.1680 -0.5582
 2617TIP3    H234775   2.378   8.183   5.329  1.0106  1.6883  1.8451
 2618TIP3   OH234776   8.239   0.589   0.141  0.1187  0.4609  0.1983
 2618TIP3    H134777   8.329   0.620   0.153 -0.0452  0.3796  1.8388
 2618TIP3    H234778   8.225   0.528   0.213 -1.6470  1.3692  0.6710
 2619TIP3   OH234779   5.711   7.953   0.206  0.2861 -0.3101  0.2638
 2619TIP3    H134780   5.648   7.921   0.271  0.6227 -0.2422  0.6237
 2619TIP3    H234781   5.709   7.887   0.137 -0.2961 -0.2323  0.1947
 2620TIP3   OH234782   4.295   6.350   1.418  0.0116  0.0866  0.2548
 2620TIP3    H134783   4.313   6.357   1.324 -0.9608 -1.0673 -0.0451
 2620TIP3    H234784   4.336   6.428   1.457  0.5966  0.4743 -1.0923
 2621TIP3   OH234785   3.415   7.916   0.116  0.2371  0.5598  0.3139
 2621TIP3    H134786   3.441   8.008   0.106 -1.0323  1.0404  1.1726
 2621TIP3    H234787   3.333   7.910   0.066  0.3522 -0.1299  0.2067
 2622TIP3   OH234788   1.769   1.334   6.118 -0.1056  0.3868 -0.1050
 2622TIP3    H134789   1.688   1.385   6.129  1.4318  2.6214  1.9167
 2622TIP3    H234790   1.803   1.362   6.033 -1.8925 -1.3486 -1.4576
 2623TIP3   OH234791   1.340   5.997   6.175  0.5251  0.2535 -0.1349
 2623TIP3    H134792   1.415   6.029   6.126  0.6763  0.6789  0.3725
 2623TIP3    H234793   1.378   5.955   6.252  0.2795 -0.2716 -0.2941
 2624TIP3   OH234794   0.304   6.995   5.228 -0.4372  0.3614 -0.5042
 2624TIP3    H134795   0.212   6.995   5.200 -1.0140 -1.6545  1.1385
 2624TIP3    H234796   0.348   6.940   5.163 -0.3781  1.2078 -1.2089
 2625TIP3   OH234797   4.385   8.130   6.224  0.4618  0.1961 -0.3738
 2625TIP3    H134798   4.423   8.088   6.302 -2.4128  1.1777  1.7332
 2625TIP3    H234799   4.374   8.058   6.162 -0.4851 -1.4611  1.5679
 2626TIP3   OH234800   6.159   5.051   6.777  0.1656 -0.2157  0.4016
 2626TIP3    H134801   6.093   5.115   6.804 -1.4861 -1.7901  0.3222
 2626TIP3    H234802   6.219   5.100   6.722 -2.2590  0.8628 -1.4758
 2627TIP3   OH234803   0.213   5.627   5.507  0.1057  0.7708 -0.3574
 2627TIP3    H134804   0.265   5.690   5.557  0.3404 -0.8174  1.5222
 2627TIP3    H234805   0.144   5.600   5.568 -0.9310  0.3699 -1.6756
 2628TIP3   OH234806   5.113   1.311   6.327  0.0682 -0.2686 -0.3049
 2628TIP3    H134807   5.025   1.314   6.367  1.1552 -0.8574  2.3800
 2628TIP3    H234808   5.141   1.221   6.340  1.1757 -0.0243 -0.9258
 2629TIP3   OH234809   1.753   1.384   0.969  0.6278 -0.0866  0.3249
 2629TIP3    H134810   1.742   1.294   0.999  0.6756  0.5294  2.3359
 2629TIP3    H234811   1.823   1.420   1.024  0.5422  1.2079 -0.3626
 2630TIP3   OH234812   3.815   2.685   5.198 -0.6916  0.3546 -0.1786
 2630TIP3    H134813   3.802   2.691   5.103  1.3154  0.9360 -0.4779
 2630TIP3    H234814   3.824   2.591   5.215  1.3916  0.3315 -1.0285
 2631TIP3   OH234815   3.635   2.731   6.467  1.4208 -0.2373 -0.1806
 2631TIP3    H134816   3.579   2.704   6.539  0.6919 -0.7744 -0.9243
 2631TIP3    H234817   3.724   2.711   6.497  1.1037 -0.7581  0.4415
 2632TIP3   OH234818   3.399   5.941   0.255 -0.4270  0.5403 -0.4056
 2632TIP3    H134819   3.339   6.016   0.264 -1.4753 -0.4727  2.0586
 2632TIP3    H234820   3.348   5.866   0.285  2.2273 -0.2779  2.6386
 2633TIP3   OH234821   6.950   6.433   1.644 -0.3394  0.1775 -0.7793
 2633TIP3    H134822   6.984   6.512   1.601 -0.6111  0.8101  0.1340
 2633TIP3    H234823   6.977   6.442   1.736 -2.4656  0.4502 -0.1256
 2634TIP3   OH234824   1.290   7.944   0.163  0.0403  0.2079  0.1644
 2634TIP3    H134825   1.225   7.966   0.097  1.7994  2.3738 -0.9711
 2634TIP3    H234826   1.265   7.996   0.240 -2.9457 -3.4888  2.0439
 2635TIP3   OH234827   7.648   0.965   6.651 -0.5228  0.2683 -0.0635
 2635TIP3    H134828   7.704   0.959   6.728  1.4529 -1.4270 -1.5412
 2635TIP3    H234829   7.573   1.017   6.680  0.9155  1.0640  2.5150
 2636TIP3   OH234830   7.830   3.157   5.328  0.2389  0.3088  0.1141
 2636TIP3    H134831   7.838   3.126   5.237  0.3854 -0.4863  0.3849
 2636TIP3    H234832   7.758   3.220   5.325 -0.6477 -0.6769 -0.3341
 2637TIP3   OH234833   2.664   0.281   0.986  0.0509  0.2752 -0.0479
 2637TIP3    H134834   2.698   0.322   1.065  1.0887  1.7733 -1.2194
 2637TIP3    H234835   2.725   0.210   0.967  0.7561  0.9636 -0.3966
 2638TIP3   OH234836   1.480   0.621   0.832  0.1470  0.0496 -0.6744
 2638TIP3    H134837   1.493   0.706   0.873 -0.9961 -0.1297  0.1231
 2638TIP3    H234838   1.567   0.581   0.831  0.4190  0.5783  0.4404
 2639TIP3   OH234839   1.451   1.829   6.780 -0.2868  0.4146 -0.7329
 2639TIP3    H134840   1.449   1.921   6.754 -0.4891  0.2988 -1.1448
 2639TIP3    H234841   1.360   1.799   6.768 -0.8833  0.8606  2.0038
 2640TIP3   OH234842   4.285   5.273   5.672  0.3254 -0.2046  0.6505
 2640TIP3    H134843   4.357   5.258   5.732 -0.3308 -0.6340  1.3537
 2640TIP3    H234844   4.325   5.276   5.585  1.6233  2.6651  1.2151
 2641TIP3   OH234845   2.273   1.056   6.890  0.1723 -0.4889 -0.1348
 2641TIP3    H134846   2.312   1.130   6.937 -0.2164  0.1018 -0.7102
 2641TIP3    H234847   2.317   0.979   6.925 -0.2762 -0.0969  1.3534
 2642TIP3   OH234848   5.380   2.199   1.530 -0.1654 -0.3720 -0.0565
 2642TIP3    H134849   5.303   2.144   1.543 -0.9625  0.4575 -1.0529
 2642TIP3    H234850   5.429   2.191   1.611 -1.4905 -0.6326  0.7479
 2643TIP3   OH234851   4.257   1.888   6.921 -0.0972 -0.7743  0.2972
 2643TIP3    H134852   4.251   1.819   6.988 -0.6340  0.1772  1.2629
 2643TIP3    H234853   4.262   1.841   6.838 -2.0123 -1.9994  0.8043
 2644TIP3   OH234854   0.159   5.544   0.505 -0.0182 -0.0352  0.3563
 2644TIP3    H134855   0.255   5.544   0.513  0.2295  0.3566 -1.9419
 2644TIP3    H234856   0.141   5.616   0.445 -1.8099  0.1032  1.0161
 2645TIP3   OH234857   3.129   6.942   5.604 -0.1071  0.0352 -0.1397
 2645TIP3    H134858   3.066   6.903   5.665 -0.0548 -0.0646 -0.1482
 2645TIP3    H234859   3.080   6.951   5.522 -0.4551  1.0156  0.1598
 2646TIP3   OH234860   7.966   2.915   1.164 -0.3570 -0.1607 -0.0670
 2646TIP3    H134861   7.904   2.928   1.092 -0.6540 -1.5225 -0.0753
 2646TIP3    H234862   8.050   2.902   1.121 -0.8422 -2.9146 -0.3233
 2647TIP3   OH234863   6.615   6.083   0.989 -0.1250 -0.3864 -0.4004
 2647TIP3    H134864   6.599   5.989   0.978 -1.3674 -0.0851 -1.3141
 2647TIP3    H234865   6.583   6.123   0.909 -0.4519  0.9179  0.3498
 2648TIP3   OH234866   8.366   8.179   0.359 -0.4335 -0.3391 -0.1255
 2648TIP3    H134867   8.377   8.247   0.292 -0.2731 -0.5603 -0.3234
 2648TIP3    H234868   8.446   8.127   0.354  0.4081  0.7279  1.4842
 2649TIP3   OH234869   6.818   1.331   5.383  0.0720  0.0678 -0.1118
 2649TIP3    H134870   6.762   1.255   5.368 -0.6284  0.8891 -1.9248
 2649TIP3    H234871   6.871   1.338   5.304  0.7227  0.9842  0.3825
 2650TIP3   OH234872   4.973   0.374   0.464  0.2282  0.7472 -0.5522
 2650TIP3    H134873   5.058   0.350   0.428  1.3935  0.4494  2.1084
 2650TIP3    H234874   4.912   0.309   0.429  1.4800 -0.2325 -0.9878
 2651TIP3   OH234875   5.919   6.877   6.660  0.3356 -0.1984 -0.1303
 2651TIP3    H134876   5.878   6.792   6.642  0.0644  0.0317 -0.6554
 2651TIP3    H234877   5.942   6.911   6.573  2.4520 -0.6898  0.1876
 2652TIP3   OH234878   6.290   5.108   1.431 -0.2908  0.1658  0.5745
 2652TIP3    H134879   6.384   5.103   1.412 -0.4295 -0.3831  0.0053
 2652TIP3    H234880   6.253   5.155   1.356 -0.4827  0.3251  0.7674
 2653TIP3   OH234881   7.753   0.345   1.856  0.0951  0.3709 -0.7303
 2653TIP3    H134882   7.683   0.295   1.813  0.9976 -0.6194 -1.0881
 2653TIP3    H234883   7.831   0.291   1.846  0.5146  0.4809  1.4731
 2654TIP3   OH234884   3.658   5.288   1.376 -0.1215 -0.4494 -0.4599
 2654TIP3    H134885   3.707   5.296   1.458  0.8272  0.0730 -1.0516
 2654TIP3    H234886   3.567   5.303   1.401  0.0067 -1.3995  0.6711
 2655TIP3   OH234887   2.595   1.123   6.331 -0.3537 -0.3564 -0.3739
 2655TIP3    H134888   2.564   1.088   6.414  1.1127 -1.0246 -0.0933
 2655TIP3    H234889   2.568   1.058   6.266 -1.3900  0.1072 -0.4361
 2656TIP3   OH234890   3.379   0.693   6.895 -0.2223  0.2994  0.1328
 2656TIP3    H134891   3.390   0.599   6.908  1.3717  0.4013 -0.2470
 2656TIP3    H234892   3.468   0.728   6.897 -0.5901  1.5122 -1.8194
 2657TIP3   OH234893   0.669   1.399   6.592 -0.1750 -0.4107 -0.2238
 2657TIP3    H134894   0.600   1.390   6.526  1.0385 -1.6507 -1.3928
 2657TIP3    H234895   0.750   1.404   6.541  0.7629 -0.8873  1.1713
 2658TIP3   OH234896   7.471   5.111   5.828  0.5034  0.2041 -0.0779
 2658TIP3    H134897   7.410   5.142   5.895  0.6048  0.6117 -0.1717
 2658TIP3    H234898   7.435   5.144   5.745  0.1970 -0.5800 -0.2638
 2659TIP3   OH234899   5.914   3.935   1.667  0.3212 -0.0929  0.4351
 2659TIP3    H134900   5.830   3.937   1.621 -0.2976 -0.1956  1.5207
 2659TIP3    H234901   5.921   4.022   1.707  0.9343  0.0570  0.0183
 2660TIP3   OH234902   5.999   0.830   6.239  0.0304 -0.3272 -0.4138
 2660TIP3    H134903   6.045   0.861   6.161 -0.6279 -0.3999 -0.8421
 2660TIP3    H234904   5.924   0.890   6.247  0.6678  0.3344  0.7780
 2661TIP3   OH234905   2.607   3.901   6.328  0.7250  0.0208  0.1658
 2661TIP3    H134906   2.652   3.978   6.293 -1.3842  0.9045 -0.8030
 2661TIP3    H234907   2.631   3.899   6.420  0.9109  1.8304  0.1963
 2662TIP3   OH234908   3.318   0.335   6.308 -0.2175  0.3387 -0.1136
 2662TIP3    H134909   3.254   0.402   6.332 -0.2333 -0.3744  2.1440
 2662TIP3    H234910   3.271   0.252   6.316  0.5166 -0.0910 -0.0836
 2663TIP3   OH234911   5.322   7.677   4.927  0.9755 -0.1288 -0.0848
 2663TIP3    H134912   5.364   7.762   4.939 -0.5057  0.9066 -1.7422
 2663TIP3    H234913   5.232   7.698   4.902  0.9719 -2.1279 -2.0447
 2664TIP3   OH234914   5.124   8.112   6.071 -0.4847  0.4171 -0.0855
 2664TIP3    H134915   5.166   8.196   6.086 -0.8391  0.7156 -0.7480
 2664TIP3    H234916   5.074   8.096   6.151 -0.8961  1.1213 -0.1955
 2665TIP3   OH234917   4.421   6.588   6.164 -0.4604  0.0741 -0.1092
 2665TIP3    H134918   4.332   6.560   6.182 -0.1159 -0.2875  1.1318
 2665TIP3    H234919   4.413   6.679   6.136 -1.1726  0.2157  0.5345
 2666TIP3   OH234920   1.450   7.472   0.018 -0.4912 -0.4501 -0.1578
 2666TIP3    H134921   1.502   7.493   7.011  1.0369 -2.1644  0.3397
 2666TIP3    H234922   1.476   7.537   0.083  0.2105 -0.6143 -0.2682
 2667TIP3   OH234923   1.267   3.253   0.901 -0.4374 -0.3025  0.2002
 2667TIP3    H134924   1.280   3.254   0.996 -1.0102  1.4928  0.3061
 2667TIP3    H234925   1.192   3.195   0.888  0.0486 -1.0718  0.7728
 2668TIP3   OH234926   3.883   7.565   0.476 -0.6830 -0.5481 -0.0473
 2668TIP3    H134927   3.928   7.576   0.560 -2.0345  0.0132  0.6534
 2668TIP3    H234928   3.885   7.652   0.436  0.0897 -0.8480 -0.6913
 2669TIP3   OH234929   7.202   3.609   5.172 -0.3366  0.4236 -0.0208
 2669TIP3    H134930   7.110   3.628   5.191 -0.3038  0.0946  0.4912
 2669TIP3    H234931   7.248   3.631   5.252  0.2594  2.0383 -0.7561
 2670TIP3   OH234932   7.844   4.548   1.905  0.8172 -0.0251  0.0626
 2670TIP3    H134933   7.904   4.531   1.833  1.1342  0.5513  0.1855
 2670TIP3    H234934   7.774   4.484   1.893  0.0072  1.1005 -1.7432
 2671TIP3   OH234935   8.236   5.724   6.407  0.2349  0.1079  0.2060
 2671TIP3    H134936   8.181   5.657   6.449  0.8123 -0.1720  0.5268
 2671TIP3    H234937   8.311   5.674   6.373  1.3672  0.7662  1.6476
 2672TIP3   OH234938   7.494   2.540   1.728 -0.6506  0.1251  0.6246
 2672TIP3    H134939   7.479   2.623   1.775 -2.9112  0.1043  0.0810
 2672TIP3    H234940   7.406   2.510   1.706  0.2023 -1.7277 -0.4274
 2673TIP3   OH234941   5.949   5.078   6.043  0.3534  0.0656  0.4299
 2673TIP3    H134942   6.020   5.017   6.062  0.3212 -0.0875  0.0600
 2673TIP3    H234943   5.914   5.050   5.959 -0.5177 -0.2127  0.8697
 2674TIP3   OH234944   4.308   7.658   4.990  0.2506 -0.3271  0.1315
 2674TIP3    H134945   4.351   7.583   4.949 -0.7560 -0.6871 -0.2819
 2674TIP3    H234946   4.285   7.716   4.918 -1.6808 -1.0451  0.1082
 2675TIP3   OH234947   4.285   4.462   1.052 -0.7187  0.7976  0.1161
 2675TIP3    H134948   4.360   4.441   0.996 -0.7232 -0.7556  0.6252
 2675TIP3    H234949   4.212   4.470   0.991 -0.3976  0.9011 -0.2616
 2676TIP3   OH234950   4.057   6.700   6.904  0.7272  0.1946 -0.0412
 2676TIP3    H134951   4.106   6.709   6.985  0.3925  2.4951 -0.0191
 2676TIP3    H234952   3.999   6.776   6.902 -3.1132 -2.4740  0.0552
 2677TIP3   OH234953   2.437   8.500   0.388  0.1853 -0.0882  0.8365
 2677TIP3    H134954   2.420   0.029   0.318  0.7962  0.3700  1.1049
 2677TIP3    H234955   2.402   0.006   0.467 -0.1057 -0.4206  0.8856
 2678TIP3   OH234956   4.181   4.686   5.922  0.0339 -0.3574 -0.2806
 2678TIP3    H134957   4.185   4.745   5.998 -0.8635 -0.2694 -0.2932
 2678TIP3    H234958   4.126   4.732   5.859  1.1224 -0.2332 -1.1740
 2679TIP3   OH234959   4.637   6.560   0.059  0.0805  0.0014  0.1712
 2679TIP3    H134960   4.660   6.471   0.085  1.0721  0.9988  2.9776
 2679TIP3    H234961   4.545   6.569   0.086 -0.1022 -0.2070 -0.3504
 2680TIP3   OH234962   0.290   5.946   6.710  0.0975  0.1755 -0.0352
 2680TIP3    H134963   0.241   6.002   6.651  1.3459  1.9791  0.5596
 2680TIP3    H234964   0.382   5.963   6.690  0.5459 -1.9401 -0.0492
 2681TIP3   OH234965   4.206   2.490   1.999 -0.1246 -0.5071  0.6355
 2681TIP3    H134966   4.300   2.509   2.003 -0.2492  0.2270  0.3611
 2681TIP3    H234967   4.164   2.574   2.017 -0.7142 -0.4223 -0.9378
 2682TIP3   OH234968   3.599   4.165   0.011 -0.1564 -0.1099  0.2808
 2682TIP3    H134969   3.517   4.133   7.044 -0.2919  1.7499 -1.1374
 2682TIP3    H234970   3.649   4.086   0.031 -1.9718 -1.2719  0.4699
 2683TIP3   OH234971   3.861   7.503   0.900 -0.5241 -0.4140  0.0531
 2683TIP3    H134972   3.788   7.501   0.838 -2.2831  0.7987  1.9370
 2683TIP3    H234973   3.926   7.561   0.859 -2.3177  1.6367 -0.0288
 2684TIP3   OH234974   1.356   1.550   0.774 -0.1151  0.0029  0.3629
 2684TIP3    H134975   1.406   1.531   0.854 -1.2240  1.2735  1.4154
 2684TIP3    H234976   1.382   1.482   0.712  0.6443 -1.1388  1.8759
 2685TIP3   OH234977   1.020   6.027   5.597 -0.4670 -0.2422 -0.2355
 2685TIP3    H134978   1.042   6.089   5.666  1.1362 -0.4866 -0.4846
 2685TIP3    H234979   0.944   6.065   5.553  0.5455  1.6200 -0.4552
 2686TIP3   OH234980   0.722   6.116   1.599 -0.0766  0.1376  0.5107
 2686TIP3    H134981   0.682   6.190   1.553 -0.6187 -0.0546  0.6738
 2686TIP3    H234982   0.673   6.109   1.681  0.2344 -0.1558  0.6748
 2687TIP3   OH234983   0.343   2.099   6.341 -0.1398 -0.5710  0.3688
 2687TIP3    H134984   0.347   2.031   6.274  1.3764 -1.1234  0.9667
 2687TIP3    H234985   0.398   2.169   6.307  0.0487 -0.5517  0.7039
 2688TIP3   OH234986   5.809   1.209   1.027 -0.0543 -0.5745  0.0464
 2688TIP3    H134987   5.865   1.262   0.971  0.9658 -1.1109  0.5275
 2688TIP3    H234988   5.849   1.214   1.113 -1.8907  0.6699  0.9034
 2689TIP3   OH234989   6.449   0.670   5.953 -0.4366 -0.6521 -0.2134
 2689TIP3    H134990   6.455   0.637   6.043  1.1595  1.2249  0.4317
 2689TIP3    H234991   6.536   0.653   5.916 -0.4418  0.4083 -0.7332
 2690TIP3   OH234992   2.726   0.761   6.835  0.1746 -1.0986 -0.3285
 2690TIP3    H134993   2.806   0.740   6.787 -0.3760 -2.7239 -0.5707
 2690TIP3    H234994   2.696   0.678   6.872  0.2891 -0.0164  2.4641
 2691TIP3   OH234995   6.036   1.222   5.323  0.0630  0.0985  0.6353
 2691TIP3    H134996   6.059   1.223   5.230  0.7797 -0.4712  0.7934
 2691TIP3    H234997   6.068   1.306   5.357 -1.7184  1.0672  0.0418
 2692TIP3   OH234998   5.285   6.136   1.899  0.5991 -0.0804 -0.7659
 2692TIP3    H134999   5.343   6.200   1.939  0.4741 -0.3108 -0.1942
 2692TIP3    H235000   5.334   6.054   1.903  1.3869  0.2514 -2.9062
 2693TIP3   OH235001   4.632   4.086   1.311 -0.3802  0.0590 -0.0109
 2693TIP3    H135002   4.660   4.064   1.400 -0.5676 -1.0375 -0.2090
 2693TIP3    H235003   4.708   4.068   1.256 -1.2596 -2.6907 -0.5172
 2694TIP3   OH235004   0.656   3.309   6.657 -0.2620  0.1107  0.2079
 2694TIP3    H135005   0.749   3.295   6.678 -0.2324  0.7084  0.5136
 2694TIP3    H235006   0.614   3.317   6.742 -0.8288 -1.4849  0.1033
 2695TIP3   OH235007   7.505   3.008   0.667  0.8166  0.2975 -0.3658
 2695TIP3    H135008   7.585   2.992   0.618  0.2701  0.9512 -1.5198
 2695TIP3    H235009   7.504   3.102   0.682  0.7870  0.1505  0.5774
 2696TIP3   OH235010   7.959   8.228   0.471 -0.4119 -0.2370  0.1837
 2696TIP3    H135011   7.966   8.298   0.406  0.2628  0.3702  0.8914
 2696TIP3    H235012   7.962   8.273   0.555  1.6059 -1.2077  0.6952
 2697TIP3   OH235013   5.426   2.483   0.151 -0.3863 -0.5207 -0.2122
 2697TIP3    H135014   5.442   2.578   0.157  1.1386 -0.7238 -0.7198
 2697TIP3    H235015   5.432   2.453   0.242  3.0527 -0.6632 -0.3639
 2698TIP3   OH235016   5.121   5.202   0.507 -0.4929 -0.8192  0.1915
 2698TIP3    H135017   5.079   5.173   0.427 -0.5633 -1.6936  0.5382
 2698TIP3    H235018   5.190   5.261   0.478 -0.3602 -1.3149 -0.5219
 2699TIP3   OH235019   1.570   8.433   6.525 -0.2731  0.4793  0.0911
 2699TIP3    H135020   1.532   8.447   6.612  1.5466 -1.5823  1.3097
 2699TIP3    H235021   1.585   8.521   6.491  0.6874  1.4159  2.6797
 2700TIP3   OH235022   8.331   6.616   1.413 -0.0997  0.1091 -0.0529
 2700TIP3    H135023   8.319   6.539   1.357 -1.4570 -0.2757  0.7449
 2700TIP3    H235024   8.380   6.584   1.488 -2.9267 -0.6660  1.5911
 2701TIP3   OH235025   6.100   3.790   0.355 -0.1501 -0.0989  0.4524
 2701TIP3    H135026   6.106   3.885   0.341  1.3125 -0.1290  0.6741
 2701TIP3    H235027   6.108   3.780   0.450 -2.3683 -0.3570  0.6727
 2702TIP3   OH235028   5.466   7.453   6.484  0.0638  0.2091 -0.4133
 2702TIP3    H135029   5.458   7.359   6.468 -0.1582  0.1801 -0.1585
 2702TIP3    H235030   5.462   7.493   6.397 -1.2826  0.0729 -0.4408
 2703TIP3   OH235031   0.482   3.600   0.793  0.0027 -0.0065  0.3419
 2703TIP3    H135032   0.424   3.525   0.798  1.7514 -1.4142  0.4008
 2703TIP3    H235033   0.490   3.630   0.884  1.3587 -1.4318  0.7317
 2704TIP3   OH235034   6.109   6.016   0.331  0.8507  0.0414  0.2063
 2704TIP3    H135035   6.161   6.013   0.250  0.1054 -0.3968 -0.2672
 2704TIP3    H235036   6.085   6.109   0.340  1.6497  0.2408  0.4019
 2705TIP3   OH235037   1.259   6.252   6.293 -0.5582 -0.4757 -0.5377
 2705TIP3    H135038   1.284   6.174   6.242 -0.2824  0.2546 -1.5419
 2705TIP3    H235039   1.197   6.218   6.358 -1.6382 -1.2941 -1.9453
 2706TIP3   OH235040   0.780   6.047   6.794 -0.7528  0.2386  0.2135
 2706TIP3    H135041   0.838   6.109   6.839 -0.0123 -0.2252 -0.0756
 2706TIP3    H235042   0.816   5.961   6.816  1.2211  0.0054 -3.2161
 2707TIP3   OH235043   5.869   3.998   0.542 -0.5077 -0.2463 -0.0486
 2707TIP3    H135044   5.958   4.031   0.557  0.4639 -3.1798  1.4158
 2707TIP3    H235045   5.850   4.022   0.451  1.9180  0.1809 -0.5191
 2708TIP3   OH235046   4.856   6.187   6.966  0.5369 -0.7629 -0.0967
 2708TIP3    H135047   4.832   6.117   6.905  1.5116 -1.2275  0.0244
 2708TIP3    H235048   4.950   6.200   6.952  0.4367  0.2827  0.1355
 2709TIP3   OH235049   0.825   4.249   5.275 -0.4327 -0.7537  0.1926
 2709TIP3    H135050   0.768   4.207   5.210 -1.2200  1.4988 -0.6792
 2709TIP3    H235051   0.904   4.195   5.276 -0.8554 -1.4962 -1.8156
 2710TIP3   OH235052   7.329   0.560   0.080 -0.1263  0.1842  0.2237
 2710TIP3    H135053   7.421   0.557   0.055 -0.4679 -0.4093 -1.0250
 2710TIP3    H235054   7.304   0.469   0.093 -0.8542  0.2433 -0.6795
 2711TIP3   OH235055   2.087   8.110   0.125 -0.0120 -0.1881 -0.6047
 2711TIP3    H135056   2.108   8.033   0.178  0.0796 -0.9610 -1.7418
 2711TIP3    H235057   2.172   8.148   0.102 -0.0484  0.0334 -0.3892
 2712TIP3   OH235058   0.521   2.748   1.857 -0.3000  0.3541 -0.4286
 2712TIP3    H135059   0.616   2.739   1.843 -0.6752 -1.5740 -1.9893
 2712TIP3    H235060   0.494   2.664   1.895 -1.8717 -0.4390 -3.0724
 2713TIP3   OH235061   1.725   2.594   0.188 -0.0186 -0.0980 -0.2098
 2713TIP3    H135062   1.759   2.620   0.103  0.8352 -2.0604 -0.5116
 2713TIP3    H235063   1.772   2.513   0.210 -0.9806 -0.2201  1.6311
 2714TIP3   OH235064   1.993   0.703   6.606  0.3649 -0.5059  0.3912
 2714TIP3    H135065   1.954   0.618   6.585  0.4770 -0.2899 -0.7595
 2714TIP3    H235066   1.957   0.763   6.540 -0.4014  0.5445  1.7103
 2715TIP3   OH235067   1.997   5.109   1.071  0.6190  0.1103 -0.9268
 2715TIP3    H135068   2.075   5.076   1.028  1.6022  0.8679  0.2146
 2715TIP3    H235069   2.009   5.204   1.072 -0.9486  0.3620 -1.8793
 2716TIP3   OH235070   6.262   8.437   7.038  0.2269 -0.0088  0.1901
 2716TIP3    H135071   6.339   8.421   6.985 -1.3036 -0.2717 -2.1128
 2716TIP3    H235072   6.260   8.365   0.030  1.3664 -0.4849 -0.2940
 2717TIP3   OH235073   2.850   5.187   1.019  0.0688 -0.4661 -0.2078
 2717TIP3    H135074   2.771   5.241   1.020  1.3848  1.5740 -0.6120
 2717TIP3    H235075   2.835   5.122   1.088 -1.5894  0.4229  0.3323
 2718TIP3   OH235076   8.329   2.927   5.465  0.4804 -0.1763  0.2289
 2718TIP3    H135077   8.358   2.940   5.375 -0.2506  1.9950  0.2573
 2718TIP3    H235078   8.242   2.887   5.457 -0.5796  2.0609 -0.1645
 2719TIP3   OH235079   6.526   2.659   0.004 -0.1561  0.1998  0.0608
 2719TIP3    H135080   6.576   2.579   7.057 -1.0788 -0.2170 -0.8336
 2719TIP3    H235081   6.482   2.642   0.087 -0.2058 -0.1657 -0.0368
 2720TIP3   OH235082   8.309   1.341   1.033 -0.5962 -0.1514  0.1316
 2720TIP3    H135083   8.357   1.273   0.986 -0.3732  0.8143 -1.0908
 2720TIP3    H235084   8.264   1.390   0.964  0.3658  1.7960  0.8022
 2721TIP3   OH235085   6.931   0.987   0.866  0.1682  0.2851  0.3886
 2721TIP3    H135086   6.952   0.971   0.774 -0.9565 -1.1008  0.3447
 2721TIP3    H235087   7.002   0.945   0.914  0.3920  0.4122  0.1739
 2722TIP3   OH235088   4.629   4.491   6.735 -0.6990  0.3531 -0.0040
 2722TIP3    H135089   4.559   4.427   6.750 -2.4409  2.3562  1.0115
 2722TIP3    H235090   4.660   4.513   6.822 -0.9115  1.6880 -0.2499
 2723TIP3   OH235091   8.174   4.684   0.514  0.4998  0.2309  0.6633
 2723TIP3    H135092   8.258   4.643   0.492 -0.1441 -0.2458 -0.9956
 2723TIP3    H235093   8.165   4.756   0.452 -0.5018  0.0245  0.5535
 2724TIP3   OH235094   0.139   7.184   0.075  0.3851  0.1355 -0.1227
 2724TIP3    H135095   0.166   7.093   0.065 -1.0479 -0.2255 -0.9893
 2724TIP3    H235096   0.218   7.230   0.104  1.0158 -1.4501  0.7711
 2725TIP3   OH235097   4.250   0.226   1.554 -0.7427  0.3679 -0.3141
 2725TIP3    H135098   4.248   0.169   1.631  0.6240  0.5323 -0.1318
 2725TIP3    H235099   4.208   0.174   1.485  0.0730 -0.6944 -0.0351
 2726TIP3   OH235100   5.524   6.394   5.930  0.6895  0.2163  0.4084
 2726TIP3    H135101   5.580   6.340   5.874 -0.0999 -0.2318  0.0240
 2726TIP3    H235102   5.436   6.379   5.896  0.3901  1.3384  0.6397
 2727TIP3   OH235103   5.859   3.156   7.056  0.1558  0.0776 -0.2549
 2727TIP3    H135104   5.828   3.076   7.013 -1.2224  0.5467 -0.1777
 2727TIP3    H235105   5.939   3.129   0.030  1.8737 -0.3769 -3.2924
 2728TIP3   OH235106   0.466   0.819   6.748 -0.3145 -0.5471  0.2449
 2728TIP3    H135107   0.412   0.867   6.811 -1.4460 -0.2970 -0.8776
 2728TIP3    H235108   0.444   0.727   6.763 -1.2130 -0.4369 -0.3210
 2729TIP3   OH235109   5.267   4.555   0.671  0.2415 -0.4604 -0.3864
 2729TIP3    H135110   5.351   4.598   0.664  1.0915 -1.6030  1.8809
 2729TIP3    H235111   5.276   4.475   0.619 -0.6126  0.9019 -2.7966
 2730TIP3   OH235112   5.966   0.403   0.450  0.4384 -0.2290  0.5692
 2730TIP3    H135113   5.934   0.330   0.397 -0.4993 -0.5683  1.5797
 2730TIP3    H235114   6.012   0.459   0.387 -3.2956  1.0554 -1.3963
 2731TIP3   OH235115   4.178   7.661   6.032  0.3043  0.5888 -0.3856
 2731TIP3    H135116   4.271   7.637   6.030  0.1244 -0.1303 -0.8425
 2731TIP3    H235117   4.132   7.580   6.009 -0.3846  1.2149 -1.2971
 2732TIP3   OH235118   4.929   7.511   0.796  0.1332  0.4401  0.0914
 2732TIP3    H135119   4.894   7.587   0.842 -1.4093 -0.4093  0.3977
 2732TIP3    H235120   5.017   7.537   0.769  0.6350  1.4247  2.4064
 2733TIP3   OH235121   3.945   8.154   0.643  0.0420 -0.5822  0.0264
 2733TIP3    H135122   3.920   8.135   0.552 -0.1906  0.0597 -0.0419
 2733TIP3    H235123   3.912   8.079   0.693 -0.3305 -0.6588 -0.3330
 2734TIP3   OH235124   0.525   0.735   1.723  0.8167  0.4892 -0.1959
 2734TIP3    H135125   0.528   0.738   1.818  3.5084  0.1041 -0.2028
 2734TIP3    H235126   0.580   0.808   1.694  0.1634  0.5135 -1.4753
 2735TIP3   OH235127   4.302   2.980   6.619 -0.0338  0.4228  0.2674
 2735TIP3    H135128   4.279   2.887   6.618 -0.6695  0.5500  1.4008
 2735TIP3    H235129   4.300   3.006   6.527  1.5040 -0.9905 -0.2073
 2736TIP3   OH235130   2.075   4.661   5.205  0.4739 -1.0482  0.3952
 2736TIP3    H135131   2.079   4.566   5.219  2.1754 -0.9329  0.9947
 2736TIP3    H235132   2.143   4.678   5.140 -1.8621 -0.5526 -2.0883
 2737TIP3   OH235133   8.010   3.187   0.565 -0.2173 -0.0547  0.1319
 2737TIP3    H135134   7.950   3.157   0.634  0.4300  1.4054  1.3862
 2737TIP3    H235135   8.067   3.250   0.609  0.8312  0.2247 -1.5486
 2738TIP3   OH235136   6.625   2.366   1.727 -0.1451  0.2330 -0.0456
 2738TIP3    H135137   6.636   2.307   1.802 -0.6693  0.0035 -0.1490
 2738TIP3    H235138   6.531   2.385   1.725  0.0699  1.4184  0.2529
 2739TIP3   OH235139   3.492   2.821   6.969 -0.0845  0.1006  0.5519
 2739TIP3    H135140   3.568   2.779   7.011  0.5275  0.7033  0.0586
 2739TIP3    H235141   3.469   2.762   6.897 -0.3394 -0.2841  0.9409
 2740TIP3   OH235142   2.552   5.380   5.397  0.4985  0.2962 -0.6781
 2740TIP3    H135143   2.545   5.402   5.304  2.2506  2.3340 -0.4130
 2740TIP3    H235144   2.465   5.399   5.433  0.0082  0.1726 -1.7585
 2741TIP3   OH235145   5.346   0.940   1.409  0.4117 -0.3454 -0.6448
 2741TIP3    H135146   5.407   0.977   1.473 -0.5104  0.5167 -0.2349
 2741TIP3    H235147   5.331   0.851   1.440 -0.0249  0.0600  0.3764
 2742TIP3   OH235148   2.542   8.162   0.975  0.1124 -0.2159  0.3473
 2742TIP3    H135149   2.448   8.148   0.975 -0.5786  3.2617 -1.6270
 2742TIP3    H235150   2.559   8.215   1.053  0.0666  0.7723 -0.2964
 2743TIP3   OH235151   0.002   5.594   0.737  0.6425 -0.4025 -0.0118
 2743TIP3    H135152   0.013   5.507   0.699 -0.2571 -0.1903 -0.7912
 2743TIP3    H235153   8.499   5.646   0.667 -2.7555 -0.4210  1.6448
 2744TIP3   OH235154   5.815   6.925   0.962  0.3700 -0.1908 -0.4301
 2744TIP3    H135155   5.834   6.915   0.868  0.0234 -1.8728 -0.3659
 2744TIP3    H235156   5.729   6.883   0.973  0.5326 -0.2540  0.6887
 2745TIP3   OH235157   4.955   6.148   6.318  0.3233  0.4875  0.4077
 2745TIP3    H135158   4.986   6.059   6.333  0.2821  0.1659 -1.1777
 2745TIP3    H235159   5.033   6.202   6.324  0.4028  0.3089  1.0476
 2746TIP3   OH235160   8.401   1.248   6.541  0.0847  0.4274 -0.1040
 2746TIP3    H135161   8.420   1.329   6.495 -0.3062  0.1174 -0.8213
 2746TIP3    H235162   8.474   1.190   6.517  2.1157  1.4896  2.8566
 2747TIP3   OH235163   0.845   1.801   6.254 -0.3070  0.3164  0.0507
 2747TIP3    H135164   0.784   1.874   6.265 -1.9215 -1.1978  1.9803
 2747TIP3    H235165   0.789   1.725   6.239  1.1909 -0.8828  0.2924
 2748TIP3   OH235166   0.143   3.771   6.555 -0.5309  0.0178 -1.1974
 2748TIP3    H135167   0.154   3.843   6.616 -2.3778 -0.4125 -0.2941
 2748TIP3    H235168   0.164   3.809   6.469  0.6901  1.0040 -0.4997
 2749TIP3   OH235169   7.775   6.856   1.864  0.2472  0.2794  0.1371
 2749TIP3    H135170   7.809   6.853   1.775  1.7165 -0.7069  0.6909
 2749TIP3    H235171   7.731   6.772   1.875 -0.0683  0.4657  0.2876
 2750TIP3   OH235172   5.163   2.579   6.844  0.3963 -0.1798 -0.5421
 2750TIP3    H135173   5.139   2.491   6.873 -2.0206  0.6102  0.1573
 2750TIP3    H235174   5.258   2.578   6.841  0.4481 -2.9249 -0.9842
 2751TIP3   OH235175   4.944   4.727   0.991  0.1193 -0.4505  0.2721
 2751TIP3    H135176   4.926   4.715   1.084  1.2334  1.1291  0.7193
 2751TIP3    H235177   5.037   4.710   0.982 -0.0262 -0.8421 -0.6158
 2752TIP3   OH235178   7.001   5.041   5.425 -0.4017 -0.3329  0.6961
 2752TIP3    H135179   6.927   5.095   5.400 -0.5367  0.1619  2.0805
 2752TIP3    H235180   7.077   5.087   5.390 -0.5044  0.8585  1.9295
 2753TIP3   OH235181   6.421   2.342   1.394  0.1249  0.4560 -0.0697
 2753TIP3    H135182   6.439   2.297   1.312  1.4533  1.5782 -0.4364
 2753TIP3    H235183   6.483   2.415   1.395  1.5132 -0.6111  2.8156
 2754TIP3   OH235184   6.649   1.125   0.158 -0.0136 -0.3325  0.5528
 2754TIP3    H135185   6.589   1.181   0.108 -0.1628  0.0710  1.1819
 2754TIP3    H235186   6.689   1.183   0.222  0.6530 -0.7174  0.4953
 2755TIP3   OH235187   1.738   2.059   1.131 -0.0339 -0.1338  0.0223
 2755TIP3    H135188   1.660   2.113   1.126  0.2399  0.1688 -1.5286
 2755TIP3    H235189   1.747   2.038   1.224  0.2900  3.1291  0.8385
 2756TIP3   OH235190   1.606   1.380   6.386  0.9583 -0.3655 -0.0925
 2756TIP3    H135191   1.655   1.325   6.325  0.1241 -0.5905 -0.5771
 2756TIP3    H235192   1.584   1.323   6.459  0.7166 -0.4802 -0.2555
 2757TIP3   OH235193   7.390   5.112   0.695 -0.1537  0.1204  0.8669
 2757TIP3    H135194   7.334   5.143   0.624 -0.2749 -1.6296  0.1581
 2757TIP3    H235195   7.467   5.169   0.692  0.2679 -0.4867 -1.2948
 2758TIP3   OH235196   1.778   1.627   1.492  0.8894  0.1604  0.1768
 2758TIP3    H135197   1.845   1.643   1.557 -0.1526  0.6857  1.1642
 2758TIP3    H235198   1.822   1.640   1.408  2.3845 -1.0323  0.7381
 2759TIP3   OH235199   0.349   3.558   0.289 -0.0664 -0.2297 -0.0292
 2759TIP3    H135200   0.288   3.547   0.216 -0.5067 -0.9497  0.4342
 2759TIP3    H235201   0.417   3.492   0.274 -0.6143 -0.9647  0.6596
 2760TIP3   OH235202   1.890   7.615   0.725  0.4377  0.0157  0.1559
 2760TIP3    H135203   1.895   7.522   0.705 -0.8911 -0.1927  0.6903
 2760TIP3    H235204   1.912   7.621   0.818 -2.2871 -0.1810  0.9113
 2761TIP3   OH235205   6.136   6.466   0.477  0.4503  0.0058 -0.3737
 2761TIP3    H135206   6.091   6.537   0.522  1.3463  0.5171 -0.2642
 2761TIP3    H235207   6.185   6.509   0.407  0.2032 -0.6208 -0.9424
 2762TIP3   OH235208   4.116   4.303   6.583 -0.6779  0.2318  0.2820
 2762TIP3    H135209   4.082   4.303   6.493 -0.4245  1.6014  0.1696
 2762TIP3    H235210   4.166   4.222   6.589 -0.1116  0.4518 -1.0580
 2763TIP3   OH235211   2.301   4.638   5.804  0.6574  0.1233  0.3377
 2763TIP3    H135212   2.318   4.711   5.745  1.7366 -0.6418 -0.3505
 2763TIP3    H235213   2.219   4.660   5.848  0.7223  1.5068 -0.2027
 2764TIP3   OH235214   5.684   0.984   6.420  0.4006  0.5949  0.2624
 2764TIP3    H135215   5.598   1.014   6.391  0.3615  0.1217 -0.1340
 2764TIP3    H235216   5.674   0.966   6.513  0.3769  1.6292  0.4637
 2765TIP3   OH235217   0.463   7.397   0.355  0.4628  0.3790  0.7814
 2765TIP3    H135218   0.386   7.342   0.368 -0.1164  0.1251 -2.7972
 2765TIP3    H235219   0.431   7.486   0.368  0.1290  0.1678  1.4664
 2766TIP3   OH235220   2.385   3.930   7.062 -0.0888 -0.5505 -0.1347
 2766TIP3    H135221   2.394   4.026   7.062  1.4509 -0.6594  0.2341
 2766TIP3    H235222   2.344   3.911   0.075 -2.8057 -0.0995 -1.2441
 2767TIP3   OH235223   6.593   8.288   5.779  1.0775  0.1223  0.0810
 2767TIP3    H135224   6.601   8.211   5.722 -0.6023  0.4237 -0.6181
 2767TIP3    H235225   6.605   8.254   5.867 -0.4025 -1.1027 -0.1553
 2768TIP3   OH235226   5.040   3.324   5.188  0.2320  0.0209 -0.6785
 2768TIP3    H135227   4.946   3.340   5.180  0.0348 -0.5364  0.3228
 2768TIP3    H235228   5.046   3.238   5.230  1.2129 -1.3083 -3.2817
 2769TIP3   OH235229   3.266   6.931   7.000 -0.4595  1.0081 -0.1105
 2769TIP3    H135230   3.189   6.987   7.013 -0.0516  1.1617  2.1483
 2769TIP3    H235231   3.299   6.916   0.018 -0.0004 -2.0546 -0.6889
 2770TIP3   OH235232   5.452   7.981   6.675  0.1433  0.0079 -0.3902
 2770TIP3    H135233   5.444   7.940   6.761  0.2630 -0.9918 -0.8435
 2770TIP3    H235234   5.546   7.986   6.658  0.2692  2.3683  0.5133
 2771TIP3   OH235235   6.691   2.398   6.428  0.7560 -0.3520  0.3569
 2771TIP3    H135236   6.654   2.449   6.500  1.0063  0.4665 -0.0727
 2771TIP3    H235237   6.683   2.456   6.352 -0.7735 -1.7271 -0.5695
 2772TIP3   OH235238   7.495   5.678   6.744  0.4753  0.4345 -0.0111
 2772TIP3    H135239   7.455   5.612   6.801  1.1531  2.0921  2.5489
 2772TIP3    H235240   7.582   5.643   6.724 -0.3620 -0.9171 -1.4881
 2773TIP3   OH235241   4.998   0.272   7.062 -0.6146 -0.5384 -0.1321
 2773TIP3    H135242   4.981   0.202   7.000 -1.4433 -1.2470  0.8625
 2773TIP3    H235243   4.914   0.315   0.003 -0.6074 -0.7816  0.9250
 2774TIP3   OH235244   0.924   1.136   0.236 -0.1256 -0.1133  0.1304
 2774TIP3    H135245   0.991   1.070   0.217 -0.6322  0.0445 -2.5770
 2774TIP3    H235246   0.888   1.110   0.320  3.2167 -0.2755  1.6935
 2775TIP3   OH235247   4.889   3.798   6.780  0.0374 -0.0043  0.5584
 2775TIP3    H135248   4.817   3.772   6.839 -0.0916  0.1056  0.4503
 2775TIP3    H235249   4.933   3.869   6.826 -1.7067  1.9512 -0.6342
 2776TIP3   OH235250   6.383   7.620   6.236 -0.4951  0.2005  0.4462
 2776TIP3    H135251   6.303   7.580   6.203 -1.2507  0.9537  1.3021
 2776TIP3    H235252   6.427   7.655   6.159 -0.6395 -0.8101 -0.1147
 2777TIP3   OH235253   5.733   0.091   6.404  0.4435 -0.1000 -0.2087
 2777TIP3    H135254   5.742   0.096   6.309 -1.5064  0.8946 -0.3881
 2777TIP3    H235255   5.719   8.534   6.422  2.4836 -0.5566 -0.6605
 2778TIP3   OH235256   8.441   5.360   1.495  0.3775 -0.8433  0.1535
 2778TIP3    H135257   8.534   5.379   1.498 -0.1791  2.3343  0.9731
 2778TIP3    H235258   8.408   5.413   1.422 -0.9575 -1.0555  0.5736
 2779TIP3   OH235259   1.828   7.848   5.382  0.1337 -0.1667 -0.7163
 2779TIP3    H135260   1.839   7.942   5.370  1.1882 -0.4042 -1.6795
 2779TIP3    H235261   1.857   7.809   5.300  1.1798 -1.4373  0.2239
 2780TIP3   OH235262   6.210   4.914   0.188  0.7914  0.0377  0.4967
 2780TIP3    H135263   6.234   4.821   0.196 -1.9416 -0.7190  0.7244
 2780TIP3    H235264   6.220   4.949   0.277  1.0935 -0.2246  0.5685
 2781TIP3   OH235265   3.234   2.762   0.767  0.5740 -0.5638  0.0342
 2781TIP3    H135266   3.287   2.841   0.773  0.4887 -0.3971 -1.1867
 2781TIP3    H235267   3.163   2.785   0.707  0.9102 -1.7479 -0.8604
 2782TIP3   OH235268   1.549   1.327   0.472 -0.5957 -0.2227 -0.0925
 2782TIP3    H135269   1.578   1.275   0.397 -1.5141 -0.1566 -0.5135
 2782TIP3    H235270   1.486   1.271   0.518  0.9064 -0.7613  1.3896
 2783TIP3   OH235271   1.695   1.362   7.027 -0.1988  0.0549 -0.6421
 2783TIP3    H135272   1.603   1.386   7.035  0.0683  1.4549 -1.3573
 2783TIP3    H235273   1.727   1.360   0.046 -0.8113  0.0887 -0.4197
 2784TIP3   OH235274   1.922   7.503   6.780  0.5488  0.3438  0.3039
 2784TIP3    H135275   1.965   7.437   6.725  1.6715  1.3527 -0.0959
 2784TIP3    H235276   1.924   7.582   6.726  0.9264  1.1581  1.4763
 2785TIP3   OH235277   5.514   4.636   0.588 -0.0302  1.0138 -0.4392
 2785TIP3    H135278   5.544   4.627   0.678  0.9176  1.9165 -0.6482
 2785TIP3    H235279   5.518   4.730   0.570 -2.5520  1.1582 -0.6627
 2786TIP3   OH235280   2.514   3.326   6.720 -0.1605 -0.0991 -0.1988
 2786TIP3    H135281   2.441   3.331   6.659  0.0882  0.5147 -0.4508
 2786TIP3    H235282   2.500   3.399   6.780  0.4031  0.1977 -0.4262
 2787TIP3   OH235283   3.307   4.622   5.493 -0.0399  0.3308  0.3596
 2787TIP3    H135284   3.272   4.633   5.404  2.7875 -0.1466 -0.9226
 2787TIP3    H235285   3.338   4.531   5.494  0.4034  0.4865  1.6729
 2788TIP3   OH235286   0.914   5.482   0.979  0.2460  0.7362  0.2337
 2788TIP3    H135287   0.834   5.461   1.027 -0.4715 -0.7451 -1.4982
 2788TIP3    H235288   0.889   5.476   0.886  2.5455 -0.7118 -0.3745
 2789TIP3   OH235289   3.013   4.737   0.546  0.2398 -0.4040 -0.5784
 2789TIP3    H135290   3.095   4.758   0.501  0.1323 -0.5625 -0.8490
 2789TIP3    H235291   2.958   4.696   0.479  0.8338 -2.5433  0.1755
 2790TIP3   OH235292   2.302   0.182   0.538  0.6404 -0.5337  0.6057
 2790TIP3    H135293   2.377   0.229   0.574 -1.7027  2.7971  1.6562
 2790TIP3    H235294   2.257   0.247   0.483 -2.2732 -1.7902  1.2704
 2791TIP3   OH235295   7.105   4.505   5.396 -0.3747  0.1979 -0.5153
 2791TIP3    H135296   7.200   4.514   5.388 -0.2419  1.6689  1.7067
 2791TIP3    H235297   7.092   4.416   5.428 -0.0710 -1.1636 -3.8237
 2792TIP3   OH235298   0.986   3.961   6.765  0.7133 -0.2886  0.4439
 2792TIP3    H135299   0.899   3.941   6.798  0.2648  0.8200 -0.0286
 2792TIP3    H235300   0.971   4.009   6.683  1.7426  0.7022  0.8101
 2793TIP3   OH235301   6.975   3.920   1.217 -0.2557  0.7014  0.5081
 2793TIP3    H135302   7.070   3.910   1.205 -0.3877 -1.1180  0.6327
 2793TIP3    H235303   6.941   3.830   1.215 -2.2913  1.3918 -2.0042
 2794TIP3   OH235304   1.266   6.148   0.039  0.2715  0.4442 -0.3613
 2794TIP3    H135305   1.212   6.106   0.107  0.9344 -1.7289 -1.0892
 2794TIP3    H235306   1.347   6.170   0.084  0.5544 -0.6161 -0.3290
 2795TIP3   OH235307   8.307   1.790   0.972  0.4828 -0.3770 -0.4069
 2795TIP3    H135308   8.227   1.835   0.999  0.5515  0.8823 -2.1195
 2795TIP3    H235309   8.378   1.852   0.993  1.0254 -1.3565  0.8223
 2796TIP3   OH235310   8.391   1.487   6.402 -0.4531  0.1888  0.0889
 2796TIP3    H135311   8.371   1.497   6.495 -0.8590  1.7348 -0.1315
 2796TIP3    H235312   8.391   1.577   6.368 -0.3143 -0.3472 -1.4002
 2797TIP3   OH235313   1.171   5.550   0.874  0.6248  0.7283 -0.0927
 2797TIP3    H135314   1.172   5.505   0.790 -0.1856 -1.2952  0.9194
 2797TIP3    H235315   1.079   5.549   0.900  0.7435  2.1071  0.4453
 2798TIP3   OH235316   2.188   4.583   5.539 -0.3661  0.1686  0.1948
 2798TIP3    H135317   2.221   4.673   5.548 -1.6539  0.5241  1.8761
 2798TIP3    H235318   2.222   4.537   5.616 -1.9736 -0.0023  0.8514
 2799TIP3   OH235319   0.192   3.408   1.089  0.3671  0.1974 -0.1942
 2799TIP3    H135320   0.274   3.358   1.091  0.4957  0.4173  0.2774
 2799TIP3    H235321   0.202   3.473   1.159 -0.4577 -0.1683  0.2854
 2800TIP3   OH235322   6.887   1.150   0.015  0.5549  0.2712 -0.1071
 2800TIP3    H135323   6.833   1.095   0.072 -0.9669  0.9970 -0.7945
 2800TIP3    H235324   6.847   1.140   6.999  2.0387  0.1991 -0.8047
 2801TIP3   OH235325   8.269   5.754   0.738  0.3135  0.1097 -0.3454
 2801TIP3    H135326   8.289   5.664   0.713 -1.6573 -1.2928  2.5400
 2801TIP3    H235327   8.327   5.773   0.811 -1.0353  0.1289  0.7749
 2802TIP3   OH235328   3.149   1.507   5.983 -0.4242  0.2764 -0.0582
 2802TIP3    H135329   3.188   1.589   6.013 -1.3836  1.3954 -1.7500
 2802TIP3    H235330   3.058   1.529   5.963 -2.1305 -2.2561  3.7458
 2803TIP3   OH235331   2.068   5.358   1.031 -0.1959 -0.3124 -0.5123
 2803TIP3    H135332   2.125   5.383   1.104 -0.0130 -1.6003 -0.1837
 2803TIP3    H235333   2.032   5.441   0.999 -0.9666  0.2484  1.5956
 2804TIP3   OH235334   0.629   0.214   1.942 -0.2484 -0.3068  0.8356
 2804TIP3    H135335   0.646   0.120   1.935  0.8565 -0.0755  0.2894
 2804TIP3    H235336   0.581   0.237   1.862  1.7774  0.0636 -0.3259
 2805TIP3   OH235337   2.203   3.049   5.371 -0.0395 -0.6178  0.5564
 2805TIP3    H135338   2.134   3.100   5.414 -0.0300 -0.2739  0.1661
 2805TIP3    H235339   2.254   3.012   5.443  1.4107  1.8345  0.9037
 2806TIP3   OH235340   4.661   1.792   6.326  0.1541  0.2720 -0.0813
 2806TIP3    H135341   4.568   1.807   6.310  0.6235  1.1729 -2.2515
 2806TIP3    H235342   4.680   1.706   6.289 -0.0709 -0.6215  1.7414
 2807TIP3   OH235343   3.582   6.182   1.519 -0.2858  0.1290 -0.4565
 2807TIP3    H135344   3.558   6.185   1.612 -1.3576 -0.7483 -0.6956
 2807TIP3    H235345   3.519   6.123   1.479  1.5988 -1.4224 -1.3151
 2808TIP3   OH235346   5.462   2.905   0.353 -0.8115  0.5372 -0.0556
 2808TIP3    H135347   5.480   2.846   0.426  0.4076  1.3809  0.3528
 2808TIP3    H235348   5.454   2.991   0.393  0.1746  1.0605 -0.9384
 2809TIP3   OH235349   2.837   1.213   4.842  0.1027 -0.1791  0.2790
 2809TIP3    H135350   2.789   1.160   4.906  0.9616 -2.0447 -0.5709
 2809TIP3    H235351   2.928   1.210   4.871  0.5538 -1.2859 -1.1414
 2810TIP3   OH235352   7.946   4.778   1.999 -0.3903 -0.0303 -0.0843
 2810TIP3    H135353   7.906   4.697   1.967 -0.9682  1.1529 -2.5707
 2810TIP3    H235354   8.027   4.786   1.949 -0.5752  1.1565 -0.2309
 2811TIP3   OH235355   3.688   6.154   6.777  0.1349 -0.5321  0.3692
 2811TIP3    H135356   3.773   6.167   6.819  0.2060 -1.6705  0.6050
 2811TIP3    H235357   3.636   6.107   6.842 -1.1676  1.3787  0.7745
 2812TIP3   OH235358   1.064   0.004   0.226 -0.4988  0.5696  0.5305
 2812TIP3    H135359   1.033   8.486   0.300  0.1820 -0.2248  0.2655
 2812TIP3    H235360   1.055   8.482   0.150  1.4674  0.3407  0.4324
 2813TIP3   OH235361   1.791   2.057   7.010  0.2156  0.0262 -0.3289
 2813TIP3    H135362   1.704   2.020   6.993 -0.1110 -0.3883  1.9106
 2813TIP3    H235363   1.776   2.151   7.017  0.1083  0.0434 -0.7151
 2814TIP3   OH235364   4.026   5.628   1.283 -0.2638 -0.2235 -0.3659
 2814TIP3    H135365   3.985   5.712   1.264 -0.6899 -0.2703  0.3090
 2814TIP3    H235366   4.097   5.649   1.343  1.3586 -0.0190 -2.2410
 2815TIP3   OH235367   2.074   1.284   0.025  1.1529  0.4596  0.0186
 2815TIP3    H135368   2.131   1.288   0.102 -0.5511 -1.2149  1.4728
 2815TIP3    H235369   2.045   1.192   0.022 -3.1091  1.5873  0.6913
 2816TIP3   OH235370   8.051   3.506   6.084 -0.1571 -0.0652 -0.0307
 2816TIP3    H135371   8.008   3.432   6.127 -0.0211 -0.6899 -0.9190
 2816TIP3    H235372   8.127   3.525   6.138 -0.0910 -0.7131  0.1146
 2817TIP3   OH235373   3.418   5.754   6.087 -0.4279 -0.1119 -0.3847
 2817TIP3    H135374   3.513   5.746   6.097 -0.2710  1.7662  0.0890
 2817TIP3    H235375   3.383   5.672   6.122  1.0619 -1.8425 -2.6369
 2818TIP3   OH235376   4.356   5.031   1.458  0.2701  0.2530  0.5630
 2818TIP3    H135377   4.376   5.070   1.544 -0.7144 -0.6191  1.2099
 2818TIP3    H235378   4.325   4.943   1.478 -1.1860  0.4661 -0.5858
 2819TIP3   OH235379   8.248   5.663   5.084  0.0374  0.1043  0.1699
 2819TIP3    H135380   8.281   5.650   4.996  1.5632  0.6503  0.6286
 2819TIP3    H235381   8.177   5.727   5.074  0.6242  0.6552 -0.5845
 2820TIP3   OH235382   7.508   0.521   0.504  0.3437  0.1182 -0.4386
 2820TIP3    H135383   7.521   0.428   0.525  0.5027  0.2329 -0.0252
 2820TIP3    H235384   7.417   0.526   0.475  0.2758 -0.1339 -0.2753
 2821TIP3   OH235385   5.315   2.070   0.231  0.3138  0.2774 -0.1296
 2821TIP3    H135386   5.386   2.067   0.167 -0.1368  0.1700 -0.6323
 2821TIP3    H235387   5.331   1.996   0.289 -0.2346 -0.6763 -1.1618
 2822TIP3   OH235388   8.229   3.655   1.548 -0.2092 -0.2599  0.4373
 2822TIP3    H135389   8.244   3.566   1.515  0.4564 -0.4360  1.1927
 2822TIP3    H235390   8.304   3.673   1.605 -0.7214  0.5000  0.8893
 2823TIP3   OH235391   5.093   1.472   6.786  0.2566  0.2782  0.1344
 2823TIP3    H135392   5.182   1.495   6.757 -0.0718  0.6267 -0.6223
 2823TIP3    H235393   5.039   1.485   6.708 -0.0228 -2.6963 -0.2629
 2824TIP3   OH235394   1.697   3.833   0.944 -0.0188 -0.4110  0.1187
 2824TIP3    H135395   1.625   3.779   0.977 -0.5455  0.1930 -0.0411
 2824TIP3    H235396   1.740   3.866   1.022 -0.7842  0.3786  0.2077
 2825TIP3   OH235397   3.973   2.777   6.851 -0.0268  0.1062  0.2091
 2825TIP3    H135398   3.944   2.862   6.818 -0.8133  0.0985  0.8496
 2825TIP3    H235399   4.068   2.779   6.842 -0.1774  0.0884 -2.0492
 2826TIP3   OH235400   6.740   8.007   1.610 -0.3609 -0.3433  0.4180
 2826TIP3    H135401   6.832   7.997   1.585 -0.3509 -0.6132  0.5642
 2826TIP3    H235402   6.739   8.081   1.670 -0.5419  1.0928 -1.2609
 2827TIP3   OH235403   7.717   8.011   1.366  0.5292  0.0887 -0.0484
 2827TIP3    H135404   7.699   7.921   1.392  1.5744 -0.4239 -0.9876
 2827TIP3    H235405   7.676   8.019   1.280  1.7852 -0.0206 -0.6813
 2828TIP3   OH235406   3.449   5.592   0.161 -0.9436 -0.3055  0.0986
 2828TIP3    H135407   3.530   5.606   0.113 -1.3944 -0.0629 -0.6107
 2828TIP3    H235408   3.386   5.563   0.094 -1.2455 -1.2111  0.7605
 2829TIP3   OH235409   5.446   0.251   1.746  0.9179 -0.4877  0.0195
 2829TIP3    H135410   5.437   0.345   1.757  2.6006 -0.3107  0.1887
 2829TIP3    H235411   5.452   0.217   1.836 -1.9759 -1.0792  0.0723
 2830TIP3   OH235412   1.442   3.117   1.269  0.3449  0.4956 -0.3659
 2830TIP3    H135413   1.429   3.138   1.361 -0.7171  1.1096 -0.6478
 2830TIP3    H235414   1.493   3.190   1.234  0.2626  0.5408 -0.3919
 2831TIP3   OH235415   1.185   6.340   0.670  0.1397 -0.0443  0.0856
 2831TIP3    H135416   1.151   6.251   0.658 -0.4774  0.2195 -0.1512
 2831TIP3    H235417   1.267   6.327   0.718 -0.4818 -0.6803  1.0434
 2832TIP3   OH235418   5.452   4.007   6.413  0.4711 -0.3384 -0.2321
 2832TIP3    H135419   5.437   4.087   6.363  2.6877 -0.0437 -0.5385
 2832TIP3    H235420   5.365   3.977   6.438 -0.4651  1.6057 -0.9875
 2833TIP3   OH235421   5.182   5.006   1.199  0.1109 -0.5627 -0.7233
 2833TIP3    H135422   5.238   4.966   1.266  0.2454 -2.3118 -1.8073
 2833TIP3    H235423   5.128   5.068   1.247  1.9707  0.1399  0.5890
 2834TIP3   OH235424   7.724   6.350   0.581  0.3473 -0.7830  0.2734
 2834TIP3    H135425   7.792   6.398   0.535  0.5857 -0.5247  0.8854
 2834TIP3    H235426   7.670   6.312   0.512  1.5289 -1.5988 -0.2417
 2835TIP3   OH235427   8.104   0.950   1.947 -0.3574  0.1039  0.0810
 2835TIP3    H135428   8.023   0.984   1.984 -0.1797  1.3337 -0.6288
 2835TIP3    H235429   8.105   0.981   1.856  1.2483  0.7417  0.2828
 2836TIP3   OH235430   6.616   8.433   1.807  0.1631 -0.1191 -0.6929
 2836TIP3    H135431   6.699   8.396   1.779 -0.9344 -2.0088 -1.6192
 2836TIP3    H235432   6.552   8.399   1.745 -1.2380  1.8050 -0.3994
 2837TIP3   OH235433   1.624   5.133   0.102  0.1573  0.0363 -0.2988
 2837TIP3    H135434   1.712   5.095   0.101  0.3898  0.5794 -0.9682
 2837TIP3    H235435   1.576   5.080   0.166  0.4430 -1.4224 -1.2513
 2838TIP3   OH235436   2.044   1.851   0.584  0.1224  0.1740  0.0927
 2838TIP3    H135437   2.050   1.916   0.654 -0.1408 -0.8005  1.0613
 2838TIP3    H235438   1.992   1.780   0.623 -0.6755 -0.0740 -1.3532
 2839TIP3   OH235439   5.348   5.259   0.092  0.3407 -0.0765  0.3231
 2839TIP3    H135440   5.297   5.207   0.029  1.0769  0.0430 -0.3874
 2839TIP3    H235441   5.434   5.218   0.092  0.2013 -0.4119  1.6934
 2840TIP3   OH235442   3.741   2.580   6.253  0.7962 -0.0825 -0.0171
 2840TIP3    H135443   3.698   2.654   6.295  0.2642 -0.4545  0.0944
 2840TIP3    H235444   3.835   2.600   6.260  0.7227 -0.0793  1.2498
 2841TIP3   OH235445   6.235   3.553   6.968 -0.1267 -0.4052 -0.1671
 2841TIP3    H135446   6.251   3.613   6.895  1.5415  0.6647  1.0171
 2841TIP3    H235447   6.314   3.499   6.973 -0.5644 -1.0165  0.3615
 2842TIP3   OH235448   2.585   4.663   6.252  0.6015  0.1721 -0.8163
 2842TIP3    H135449   2.492   4.681   6.246  0.5642  1.0806  1.5003
 2842TIP3    H235450   2.593   4.601   6.325  1.8558  0.6222 -0.5407
 2843TIP3   OH235451   2.825   2.214   0.485  0.6014 -0.2642 -0.1327
 2843TIP3    H135452   2.790   2.295   0.521  1.1049 -0.2537  0.3521
 2843TIP3    H235453   2.845   2.161   0.563 -1.3411 -1.5629 -0.4412
 2844TIP3   OH235454   5.560   4.399   0.796  0.3291 -0.3355 -0.2104
 2844TIP3    H135455   5.612   4.431   0.870  1.9520 -2.0648 -0.5138
 2844TIP3    H235456   5.613   4.329   0.758 -1.4031 -0.8997 -1.7538
 2845TIP3   OH235457   7.485   4.881   1.079  0.5542 -0.2744 -1.0876
 2845TIP3    H135458   7.465   4.803   1.027  1.5053 -0.7292 -0.7867
 2845TIP3    H235459   7.480   4.954   1.017 -1.8436 -0.3444 -1.0853
 2846TIP3   OH235460   2.064   6.804   0.002 -0.6584 -0.8087  0.4446
 2846TIP3    H135461   2.080   6.732   0.062 -0.3736  0.2610  1.7003
 2846TIP3    H235462   2.141   6.805   7.016 -0.7053 -1.5290  0.3577
 2847TIP3   OH235463   3.377   5.093   0.221 -0.2289  0.1213  0.1634
 2847TIP3    H135464   3.349   5.090   0.129 -0.4871 -1.3282  0.2663
 2847TIP3    H235465   3.462   5.048   0.221  1.1492  2.5962  0.1996
 2848TIP3   OH235466   2.544   2.152   4.770  0.1761  0.0576  0.0017
 2848TIP3    H135467   2.493   2.080   4.734  1.8825 -0.9132 -0.5486
 2848TIP3    H235468   2.540   2.220   4.703 -0.3506 -0.0227 -0.0530
 2849TIP3   OH235469   0.178   7.912   0.051  0.0882  0.5025  0.2049
 2849TIP3    H135470   0.189   7.970   7.046  2.1761 -1.1789 -0.8679
 2849TIP3    H235471   0.256   7.927   0.104  2.0234 -2.9733 -1.3523
 2850TIP3   OH235472   1.645   0.904   0.564  0.1467 -0.1896  0.5000
 2850TIP3    H135473   1.705   0.831   0.548 -0.4255 -0.8446  1.2301
 2850TIP3    H235474   1.688   0.980   0.525  2.0281 -0.4021  2.0130
 2851TIP3   OH235475   0.616   3.867   5.281  0.2035 -0.0493  0.2672
 2851TIP3    H135476   0.702   3.825   5.268 -0.8238 -1.7357 -1.5617
 2851TIP3    H235477   0.623   3.950   5.235  0.9553 -0.0257  0.4078
 2852TIP3   OH235478   1.287   0.193   6.617  0.1830  0.1186 -0.1501
 2852TIP3    H135479   1.253   0.106   6.599  1.2135 -0.5864  1.1575
 2852TIP3    H235480   1.266   0.210   6.708  1.1393  0.6798 -0.0135
 2853TIP3   OH235481   3.466   3.095   5.169 -0.3654 -0.2121  0.1118
 2853TIP3    H135482   3.490   3.017   5.219  0.4033  0.3383  0.6166
 2853TIP3    H235483   3.548   3.143   5.157 -0.7495  0.3012 -0.5831
 2854TIP3   OH235484   3.391   3.679   6.908 -0.0548  0.0902 -0.2815
 2854TIP3    H135485   3.388   3.757   6.963  1.6350  1.3346 -1.8261
 2854TIP3    H235486   3.478   3.641   6.925  0.4361  0.4112 -1.9203
 2855TIP3   OH235487   1.921   3.573   6.408 -0.5483 -0.3503  0.1740
 2855TIP3    H135488   1.994   3.619   6.367 -0.7727 -0.1285  0.0130
 2855TIP3    H235489   1.854   3.568   6.339 -1.8118  2.0018  1.0800
 2856TIP3   OH235490   2.566   2.367   4.605  0.2677  0.4213  0.0516
 2856TIP3    H135491   2.500   2.431   4.579  1.3831  0.9456 -1.7130
 2856TIP3    H235492   2.646   2.397   4.562  0.9487 -1.8329 -0.3876
 2857TIP3   OH235493   4.797   5.965   6.776  0.3133 -0.2731 -0.0269
 2857TIP3    H135494   4.853   6.028   6.730  0.0184  0.6586  0.8664
 2857TIP3    H235495   4.775   5.900   6.709  0.0012  0.9708 -1.1877
 2858TIP3   OH235496   7.311   2.558   0.216  0.0254  0.0850 -0.2908
 2858TIP3    H135497   7.339   2.471   0.185 -0.7876 -0.5168  0.5986
 2858TIP3    H235498   7.252   2.590   0.148  1.9648  0.9075 -1.6709
 2859TIP3   OH235499   7.614   0.953   1.101  0.0254  0.0480 -0.1138
 2859TIP3    H135500   7.659   1.011   1.163  0.2819 -0.3823  0.1047
 2859TIP3    H235501   7.560   1.012   1.049  1.3081  0.6661 -0.8074
 2860TIP3   OH235502   0.743   2.473   0.209 -0.1585 -0.4449 -0.0890
 2860TIP3    H135503   0.704   2.440   0.290 -1.2644 -1.5350 -1.0131
 2860TIP3    H235504   0.836   2.478   0.227 -0.5053  0.4631  1.6096
 2861TIP3   OH235505   4.884   5.704   1.827 -0.3206  0.3732 -0.2882
 2861TIP3    H135506   4.862   5.776   1.886 -0.5813  0.7774 -0.8750
 2861TIP3    H235507   4.864   5.625   1.878 -1.0331  0.7181 -0.0154
 2862TIP3   OH235508   3.018   6.419   0.245 -0.9085 -0.3668  0.0054
 2862TIP3    H135509   3.076   6.449   0.175 -0.8920 -1.0724 -0.2879
 2862TIP3    H235510   3.072   6.423   0.324 -0.8818  0.2925 -0.0402
 2863TIP3   OH235511   8.246   6.958   6.636 -0.1190 -0.6571  0.1396
 2863TIP3    H135512   8.276   7.028   6.695 -0.3340 -0.3088 -0.1633
 2863TIP3    H235513   8.316   6.893   6.639 -0.3993 -0.9457  1.2726
 2864TIP3   OH235514   2.720   1.777   1.085  0.4273  0.6834 -0.3332
 2864TIP3    H135515   2.773   1.848   1.050  1.9620 -0.3404 -0.2250
 2864TIP3    H235516   2.649   1.766   1.022  1.0830  1.2610 -1.1908
 2865TIP3   OH235517   4.848   0.700   6.645  0.7176 -0.9437  0.0727
 2865TIP3    H135518   4.929   0.732   6.685  1.5974 -0.2749 -2.1065
 2865TIP3    H235519   4.835   0.757   6.569 -0.9772 -2.0264 -0.4960
 2866TIP3   OH235520   5.309   7.124   6.069 -0.7984  0.3509 -0.1619
 2866TIP3    H135521   5.242   7.186   6.040 -2.4506 -1.7559 -1.1570
 2866TIP3    H235522   5.345   7.088   5.988  1.8197  1.6158  0.3476
 2867TIP3   OH235523   6.464   6.269   0.069  0.5074 -0.8559  0.1350
 2867TIP3    H135524   6.410   6.298   7.067 -1.1642 -0.2674  1.5558
 2867TIP3    H235525   6.460   6.173   0.065  0.1465 -0.8262 -0.3263
 2868TIP3   OH235526   4.467   8.510   6.451  0.4793 -0.7903  0.0091
 2868TIP3    H135527   4.495   0.015   6.533  0.6402 -1.9801  0.5719
 2868TIP3    H235528   4.477   0.043   6.385  1.8800 -0.2885  0.7044
 2869TIP3   OH235529   7.693   7.305   1.985  0.1914 -0.2648 -0.0167
 2869TIP3    H135530   7.697   7.298   1.889  0.1490  0.4255 -0.0736
 2869TIP3    H235531   7.691   7.399   2.002 -1.1656 -0.3861  0.6111
 2870TIP3   OH235532   6.356   7.278   5.432 -0.5199 -0.8030  0.0624
 2870TIP3    H135533   6.263   7.282   5.454 -0.6672  0.1279 -0.6661
 2870TIP3    H235534   6.361   7.219   5.357 -0.7974  0.6206 -1.1227
 2871TIP3   OH235535   2.500   2.398   0.612 -0.4971  0.0745 -0.6114
 2871TIP3    H135536   2.529   2.482   0.647 -0.5252 -0.5106  0.9012
 2871TIP3    H235537   2.536   2.394   0.524  1.5672  0.6462  0.1623
 2872TIP3   OH235538   1.205   3.297   6.759  0.0824 -0.4837  0.5651
 2872TIP3    H135539   1.175   3.383   6.790  0.2288 -0.1991 -0.0708
 2872TIP3    H235540   1.146   3.275   6.688 -0.5431 -1.3562  1.3277
 2873TIP3   OH235541   1.248   0.192   0.107 -0.2589  0.4292 -0.6301
 2873TIP3    H135542   1.210   0.118   0.155 -0.1380  1.0992  0.5528
 2873TIP3    H235543   1.190   0.266   0.127 -0.5522  0.6027 -2.0411
 2874TIP3   OH235544   3.851   7.904   0.779  0.2609 -0.8217 -0.7326
 2874TIP3    H135545   3.796   7.936   0.707  0.1608 -0.3994 -0.4694
 2874TIP3    H235546   3.793   7.901   0.855  0.7758  0.3594 -0.2705
 2875TIP3   OH235547   6.380   6.052   6.479  0.0454  0.3676 -0.6822
 2875TIP3    H135548   6.434   5.993   6.532 -2.2611 -1.6124 -0.3346
 2875TIP3    H235549   6.416   6.045   6.391 -0.6549 -2.4072 -0.8598
 2876TIP3   OH235550   4.988   6.101   0.361 -1.0111  0.1799 -0.1814
 2876TIP3    H135551   5.005   6.121   0.453 -0.0997  3.9304 -0.9748
 2876TIP3    H235552   4.897   6.129   0.347 -0.7860  0.7104 -0.6276
 2877TIP3   OH235553   5.144   7.577   5.715  0.5050  0.6601  0.6080
 2877TIP3    H135554   5.148   7.547   5.624  0.7354  1.7474  0.2416
 2877TIP3    H235555   5.179   7.666   5.713 -0.8709  1.2651  1.5059
 2878TIP3   OH235556   2.599   6.775   1.549 -0.3426 -0.4463 -0.1115
 2878TIP3    H135557   2.638   6.755   1.634  0.0512  0.5467 -0.0344
 2878TIP3    H235558   2.595   6.871   1.548 -0.9247 -0.4771 -0.9542
 2879TIP3   OH235559   7.373   5.836   6.281  0.4275  0.0574 -0.1864
 2879TIP3    H135560   7.369   5.827   6.376 -1.3910 -1.2079 -0.3095
 2879TIP3    H235561   7.328   5.918   6.262  0.1735 -0.0371  0.0098
 2880TIP3   OH235562   6.695   5.007   0.487  0.3798  0.1840  0.0242
 2880TIP3    H135563   6.625   5.037   0.429  1.6355  0.2947 -1.5058
 2880TIP3    H235564   6.756   4.961   0.429  3.2356  2.8613  0.5950
 2881TIP3   OH235565   5.693   0.842   6.973 -0.0766  0.1200  1.1700
 2881TIP3    H135566   5.671   0.850   7.066  0.6714  0.9145  1.2980
 2881TIP3    H235567   5.629   0.780   6.938 -2.3593  2.1289  1.5507
 2882TIP3   OH235568   4.244   0.050   1.782 -0.4210 -0.3634 -0.1470
 2882TIP3    H135569   4.333   0.063   1.817 -1.1693  2.0225  1.0523
 2882TIP3    H235570   4.206   8.518   1.838  0.9245 -2.2580 -1.3726
 2883TIP3   OH235571   5.342   4.423   0.976 -0.6920  0.0347 -0.4859
 2883TIP3    H135572   5.275   4.491   0.964 -1.3544 -0.8411 -2.0159
 2883TIP3    H235573   5.412   4.448   0.916  0.3969  0.9169  1.0699
 2884TIP3   OH235574   8.262   5.626   2.158 -0.2240 -0.4027 -0.3900
 2884TIP3    H135575   8.196   5.665   2.216 -0.6079 -1.4663 -0.0896
 2884TIP3    H235576   8.232   5.537   2.143  2.2207 -1.6917  1.5391
 2885TIP3   OH235577   0.849   2.969   6.792  0.7499  0.0810  0.5066
 2885TIP3    H135578   0.801   2.955   6.710 -0.3915  0.0031  1.1753
 2885TIP3    H235579   0.924   2.910   6.786  0.4928 -0.1748 -0.3297
 2886TIP3   OH235580   3.536   4.414   0.475 -0.6605 -0.7699 -0.0373
 2886TIP3    H135581   3.625   4.430   0.504 -0.6351 -0.1590 -0.4384
 2886TIP3    H235582   3.497   4.360   0.544  0.2494 -1.7113 -0.2356
 2887TIP3   OH235583   4.757   3.477   0.810  0.2459  0.4469 -0.1444
 2887TIP3    H135584   4.844   3.442   0.790  0.2613 -0.6283  1.6258
 2887TIP3    H235585   4.775   3.557   0.860  0.2303  0.2238  0.2229
 2888TIP3   OH235586   6.658   5.941   6.828  0.3675 -0.3052  0.4769
 2888TIP3    H135587   6.587   5.921   6.767 -1.3094  0.8723  1.9558
 2888TIP3    H235588   6.629   5.905   6.912 -0.2125  3.1787  1.9382
 2889TIP3   OH235589   6.804   2.657   5.513 -0.0451  0.5268 -0.3463
 2889TIP3    H135590   6.849   2.741   5.515 -0.3711  0.7523 -1.7196
 2889TIP3    H235591   6.858   2.599   5.567  0.7070  1.3559 -0.1914
 2890TIP3   OH235592   1.029   1.895   5.397 -0.4741  0.5347 -0.1613
 2890TIP3    H135593   1.121   1.918   5.394 -0.5004  0.6028 -0.4931
 2890TIP3    H235594   0.984   1.966   5.351 -0.2539 -1.6482 -4.2053
 2891TIP3   OH235595   0.297   4.063   6.143 -0.0689 -0.0365 -0.0852
 2891TIP3    H135596   0.358   4.101   6.080  0.1218 -1.6217 -0.9111
 2891TIP3    H235597   0.273   4.136   6.201  0.0143  1.3684 -1.7621
 2892TIP3   OH235598   7.644   7.212   6.383  0.0669 -0.0257 -0.1723
 2892TIP3    H135599   7.645   7.143   6.317 -2.3400  0.6404 -0.9880
 2892TIP3    H235600   7.618   7.291   6.335  0.1221  0.8855  1.2457
 2893TIP3   OH235601   2.801   5.838   0.621  0.0666 -0.1250 -0.1492
 2893TIP3    H135602   2.793   5.802   0.709 -1.6033  3.7777  1.5520
 2893TIP3    H235603   2.774   5.767   0.563 -1.1433 -2.1168  2.6397
 2894TIP3   OH235604   1.731   5.118   1.040 -0.2636 -0.2625 -0.0785
 2894TIP3    H135605   1.825   5.135   1.033 -0.3954 -0.1705 -2.3251
 2894TIP3    H235606   1.693   5.164   0.966 -2.5127  2.2599  2.4165
 2895TIP3   OH235607   3.571   7.343   6.828  0.7319 -0.0267 -0.6654
 2895TIP3    H135608   3.612   7.257   6.834  0.3724 -0.1686 -0.1971
 2895TIP3    H235609   3.508   7.345   6.900 -0.3515  0.0331 -1.5895
 2896TIP3   OH235610   7.461   1.455   6.890 -0.3937  0.3656 -0.2991
 2896TIP3    H135611   7.401   1.453   6.964  1.0712 -0.8612  0.9063
 2896TIP3    H235612   7.446   1.541   6.850 -1.6887  0.7860  0.9946
 2897TIP3   OH235613   4.562   0.830   6.210 -0.2054 -0.4641 -0.2481
 2897TIP3    H135614   4.570   0.755   6.269  0.8780 -1.4965 -1.6630
 2897TIP3    H235615   4.467   0.845   6.205 -0.3516 -0.5934  1.4092
 2898TIP3   OH235616   4.330   4.414   6.836 -0.5949  0.0994 -0.0070
 2898TIP3    H135617   4.369   4.470   6.903 -1.0692  1.0981 -0.5508
 2898TIP3    H235618   4.245   4.388   6.872 -0.1435 -0.7418  0.4802
 2899TIP3   OH235619   2.129   1.433   6.389  0.3513  0.8120  0.3085
 2899TIP3    H135620   2.162   1.486   6.462  0.2692  0.4203  0.6316
 2899TIP3    H235621   2.036   1.423   6.407  0.5135 -0.1132  0.6782
 2900TIP3   OH235622   8.533   0.475   1.781  0.1206  0.1164  0.0117
 2900TIP3    H135623   8.438   0.479   1.777 -0.1163 -1.1371  2.5205
 2900TIP3    H235624   0.026   0.564   1.802 -0.5257  0.3733 -0.2103
 2901TIP3   OH235625   7.120   0.343   1.576  0.1012  0.0036 -0.0045
 2901TIP3    H135626   7.174   0.349   1.655 -0.4308 -0.6426  0.4247
 2901TIP3    H235627   7.092   0.251   1.574  0.3088 -0.0478 -1.0826
 2902TIP3   OH235628   8.191   4.085   6.528  0.0639 -0.0888  0.1244
 2902TIP3    H135629   8.216   4.093   6.436 -0.2146  1.3338  0.1448
 2902TIP3    H235630   8.270   4.056   6.572 -0.0254 -1.6375 -0.6621
 2903TIP3   OH235631   5.318   3.408   0.202 -0.0072  0.3732 -0.2399
 2903TIP3    H135632   5.408   3.391   0.176 -0.2149  0.0340 -0.7569
 2903TIP3    H235633   5.269   3.330   0.173 -0.5108  0.6757 -0.2233
 2904TIP3   OH235634   5.394   8.223   5.920  0.2747 -0.2843  0.3262
 2904TIP3    H135635   5.384   8.315   5.897  0.1374 -0.6191 -0.9850
 2904TIP3    H235636   5.341   8.175   5.857  0.0147 -1.2515  1.2380
 2905TIP3   OH235637   6.681   6.305   1.672  0.4817 -0.1129 -0.2884
 2905TIP3    H135638   6.753   6.364   1.695  0.3582 -0.2779  0.5524
 2905TIP3    H235639   6.604   6.345   1.712  0.5660 -1.3648  1.2228
 2906TIP3   OH235640   4.701   4.110   6.793 -0.3522 -0.1295  0.8230
 2906TIP3    H135641   4.619   4.095   6.840 -0.7466  0.5487  0.3591
 2906TIP3    H235642   4.679   4.173   6.725  0.1086 -1.3890 -0.5549
 2907TIP3   OH235643   7.903   4.366   0.854 -0.3374 -0.4298  0.5098
 2907TIP3    H135644   7.950   4.434   0.807 -2.5775  2.5637  2.2386
 2907TIP3    H235645   7.903   4.291   0.795  1.1566  1.4630 -2.0821
 2908TIP3   OH235646   0.280   1.662   1.221  0.2335  0.2325 -0.3691
 2908TIP3    H135647   0.342   1.698   1.283  0.1905 -0.7560  0.2661
 2908TIP3    H235648   0.323   1.585   1.185 -0.7366 -0.6646  0.3337
 2909TIP3   OH235649   1.145   6.386   0.310 -0.4322 -0.6302  0.1128
 2909TIP3    H135650   1.116   6.314   0.366  0.7648 -2.1086 -1.0618
 2909TIP3    H235651   1.068   6.407   0.257 -0.5784 -1.6505 -0.1136
 2910TIP3   OH235652   0.275   8.137   6.972  0.2067  0.0319 -0.5968
 2910TIP3    H135653   0.251   8.162   6.883  1.2963  0.9316 -0.6672
 2910TIP3    H235654   0.371   8.144   6.974  0.3387 -1.6767  0.1580
 2911TIP3   OH235655   5.187   5.278   6.700 -0.1083  0.2576  0.1060
 2911TIP3    H135656   5.193   5.323   6.616 -2.7361  0.0215 -0.2918
 2911TIP3    H235657   5.251   5.207   6.694 -0.5159  0.0026 -1.8681
 2912TIP3   OH235658   4.539   5.956   0.534  0.4961 -0.0221 -0.0257
 2912TIP3    H135659   4.623   5.912   0.546  0.0295 -0.5321  1.6664
 2912TIP3    H235660   4.486   5.928   0.609 -1.1116  0.4699 -0.9285
 2913TIP3   OH235661   2.172   7.567   6.545  0.2634 -0.2770  0.6150
 2913TIP3    H135662   2.156   7.598   6.456  0.5494 -0.1077  0.6222
 2913TIP3    H235663   2.136   7.635   6.601  0.6650 -0.0712  0.6293
 2914TIP3   OH235664   6.863   8.291   1.114  0.2055  0.1938  0.5307
 2914TIP3    H135665   6.840   8.289   1.207  0.5284  0.4564  0.6193
 2914TIP3    H235666   6.895   8.203   1.095 -0.3395 -0.0065  0.5437
 2915TIP3   OH235667   7.702   2.161   6.626  0.1375  0.0542 -0.1321
 2915TIP3    H135668   7.758   2.207   6.565 -0.8929  1.2161 -0.2327
 2915TIP3    H235669   7.659   2.093   6.573 -0.5307  0.8647 -0.6434
 2916TIP3   OH235670   4.569   2.360   6.895 -0.3885  0.0669  0.2930
 2916TIP3    H135671   4.531   2.343   6.808  0.7364 -1.8538  0.1069
 2916TIP3    H235672   4.651   2.405   6.876 -0.5543  0.4129  0.4097
 2917TIP3   OH235673   1.616   0.499   5.073 -0.2272 -0.0247  0.6962
 2917TIP3    H135674   1.614   0.403   5.064  1.0002 -0.0774  0.8505
 2917TIP3    H235675   1.524   0.526   5.061 -0.8045 -1.3319  1.8391
 2918TIP3   OH235676   4.547   5.183   5.886 -0.1002  0.4883 -0.7177
 2918TIP3    H135677   4.576   5.273   5.867 -1.0901  1.1186  0.6141
 2918TIP3    H235678   4.599   5.129   5.827  2.3188  1.7125  0.1529
 2919TIP3   OH235679   4.997   2.315   5.579 -0.6665  0.4193 -0.1177
 2919TIP3    H135680   5.089   2.339   5.581 -0.4196 -0.4891  1.6297
 2919TIP3    H235681   4.950   2.398   5.585  0.0111  0.9249 -1.5786
 2920TIP3   OH235682   0.353   2.513   0.480  0.2712  0.1102 -0.8688
 2920TIP3    H135683   0.390   2.600   0.463  0.6368  0.9641  3.2976
 2920TIP3    H235684   0.430   2.456   0.488  0.1657 -0.0527 -1.0110
 2921TIP3   OH235685   2.040   2.208   0.128  0.1826  0.5741 -0.1764
 2921TIP3    H135686   2.087   2.134   0.167  1.9211  0.5858 -2.1004
 2921TIP3    H235687   2.103   2.280   0.130  0.2249  0.6704 -2.6172
 2922TIP3   OH235688   5.376   8.199   0.892  0.0696 -0.6036 -0.7729
 2922TIP3    H135689   5.380   8.286   0.933  0.4224 -0.8858 -0.1963
 2922TIP3    H235690   5.467   8.177   0.872  0.1147 -1.3015  0.1000
 2923TIP3   OH235691   7.185   3.371   1.435  0.3191 -0.5995 -0.9627
 2923TIP3    H135692   7.195   3.282   1.468  2.5466  0.0433  0.3227
 2923TIP3    H235693   7.091   3.387   1.437  0.0792 -1.5628  2.7237
 2924TIP3   OH235694   4.950   4.356   6.868  0.0067  0.0981 -0.4703
 2924TIP3    H135695   4.957   4.275   6.816 -1.4528 -0.4003  0.0694
 2924TIP3    H235696   4.892   4.333   6.940 -0.3652  1.6215 -0.2603
 2925TIP3   OH235697   6.065   5.509   6.987 -0.2999 -0.1068 -0.1287
 2925TIP3    H135698   6.130   5.478   7.050 -0.5361  0.5000  0.4189
 2925TIP3    H235699   6.112   5.575   6.935 -0.3023 -0.1227 -0.1512
 2926TIP3   OH235700   3.466   7.412   2.191  0.0954 -0.4111 -0.5613
 2926TIP3    H135701   3.430   7.388   2.277  1.3067  0.2038  0.1374
 2926TIP3    H235702   3.390   7.410   2.133 -1.0571  0.6629  0.8187
 2927TIP3   OH235703   7.320   0.963   0.376 -0.2294  0.5411  0.3875
 2927TIP3    H135704   7.282   0.876   0.388 -0.6977  0.7579  0.4984
 2927TIP3    H235705   7.413   0.951   0.391 -0.2816  0.0413  0.3283
 2928TIP3   OH235706   1.705   3.156   7.046  0.6349 -0.7588  0.0365
 2928TIP3    H135707   1.682   3.237   0.021 -0.4183 -1.4289  0.7420
 2928TIP3    H235708   1.621   3.114   7.028  1.1203 -1.2578 -1.1459
 2929TIP3   OH235709   5.685   8.456   5.007  0.0713  0.3146 -0.2624
 2929TIP3    H135710   5.670   8.508   4.928 -1.6041 -0.5892 -0.5882
 2929TIP3    H235711   5.597   8.434   5.038  0.7155 -1.6031  0.3366
 2930TIP3   OH235712   4.860   2.129   0.366 -0.2282  0.4136  0.6840
 2930TIP3    H135713   4.809   2.138   0.447  1.4352  1.5079  1.6730
 2930TIP3    H235714   4.938   2.081   0.392  1.5758  2.9973  0.4100
 2931TIP3   OH235715   8.279   4.636   0.990 -0.0398 -0.4251 -0.0333
 2931TIP3    H135716   8.195   4.681   0.985  0.7632  0.9931 -1.8056
 2931TIP3    H235717   8.259   4.545   0.967 -1.2623 -0.4105  0.8758
 2932TIP3   OH235718   0.417   7.429   6.723  0.4066  0.5912 -0.0551
 2932TIP3    H135719   0.382   7.476   6.798  1.5148 -0.2905  1.0518
 2932TIP3    H235720   0.486   7.486   6.689 -0.1872  1.0529 -0.5096
 2933TIP3   OH235721   6.801   1.548   0.588  0.2081 -0.5144  0.2741
 2933TIP3    H135722   6.895   1.529   0.587  0.0159 -1.8757  2.4416
 2933TIP3    H235723   6.770   1.509   0.669 -2.2782 -0.1689 -0.4505
 2934TIP3   OH235724   6.934   8.039   6.665 -0.6015  0.5673  0.1136
 2934TIP3    H135725   6.871   7.968   6.658 -1.0587  0.8702  1.0605
 2934TIP3    H235726   6.941   8.057   6.759  0.9209  0.5168  0.0437
 2935TIP3   OH235727   1.849   6.291   6.230 -0.2647 -0.0752  0.2901
 2935TIP3    H135728   1.932   6.338   6.216  0.2583 -0.5600  1.6291
 2935TIP3    H235729   1.865   6.238   6.308 -1.9000 -0.0543  0.6611
 2936TIP3   OH235730   0.635   7.136   6.315  0.3937  0.0911  0.1053
 2936TIP3    H135731   0.640   7.059   6.371 -0.7687  1.1043  1.6919
 2936TIP3    H235732   0.546   7.134   6.280  1.1517 -0.6059 -1.8889
 2937TIP3   OH235733   1.848   1.730   6.905 -0.5831 -0.7189 -0.1842
 2937TIP3    H135734   1.832   1.661   6.842 -0.8916 -0.0756 -0.8285
 2937TIP3    H235735   1.922   1.780   6.870 -0.1549 -0.9005  0.4319
 2938TIP3   OH235736   8.021   2.179   6.592  0.0046  0.0260  0.0586
 2938TIP3    H135737   7.989   2.145   6.509 -2.4061 -0.1070  0.9487
 2938TIP3    H235738   8.085   2.115   6.622 -0.3662 -0.8120 -0.8899
 2939TIP3   OH235739   2.887   8.492   6.855  0.6251  0.2775  0.0667
 2939TIP3    H135740   2.948   8.436   6.807  0.1346  0.8148 -1.2238
 2939TIP3    H235741   2.806   8.440   6.861  1.4378 -0.8870  2.7332
 2940TIP3   OH235742   4.667   2.307   6.078 -0.5668 -0.5733 -0.2015
 2940TIP3    H135743   4.761   2.312   6.060 -0.4121  0.0685  0.7345
 2940TIP3    H235744   4.632   2.253   6.007  0.5089 -0.8317 -0.5522
 2941TIP3   OH235745   4.449   1.708   6.545 -0.1776 -0.1847  0.0212
 2941TIP3    H135746   4.468   1.729   6.454 -1.9148 -0.2165 -0.3700
 2941TIP3    H235747   4.414   1.619   6.543  1.6716 -1.0042  0.9992
 2942TIP3   OH235748   0.776   4.968   2.031  0.1066  0.1007  0.1920
 2942TIP3    H135749   0.859   4.984   1.988 -0.3341  2.4974  0.1066
 2942TIP3    H235750   0.758   4.875   2.015  1.4086  0.1755 -2.1585
 2943TIP3   OH235751   3.157   7.567   1.679  0.3333 -0.2640  0.4131
 2943TIP3    H135752   3.109   7.545   1.600 -2.9258  0.9358  1.9045
 2943TIP3    H235753   3.188   7.656   1.666  1.2200 -0.6378 -0.1053
 2944TIP3   OH235754   6.068   7.219   6.828  0.0689 -0.1406  0.0659
 2944TIP3    H135755   6.035   7.137   6.866  0.9161 -1.0156 -1.0189
 2944TIP3    H235756   6.155   7.196   6.794 -0.3599  0.7648 -1.7478
 2945TIP3   OH235757   3.223   5.822   5.624 -0.8186 -0.5195  0.1579
 2945TIP3    H135758   3.173   5.888   5.672  0.8945  1.3555 -0.5276
 2945TIP3    H235759   3.216   5.743   5.679 -2.3606  0.3666  1.3359
 2946TIP3   OH235760   0.582   2.340   6.164  0.1599 -0.3577  0.1748
 2946TIP3    H135761   0.652   2.388   6.119 -0.3186  0.5349  0.3842
 2946TIP3    H235762   0.557   2.271   6.101  1.4986 -0.9618  0.2612
 2947TIP3   OH235763   6.049   0.177   1.405  0.1266 -0.3483 -0.4487
 2947TIP3    H135764   6.052   0.127   1.487  0.4954 -0.6326 -0.6321
 2947TIP3    H235765   6.056   0.268   1.432 -2.0672 -0.2618  0.0120
 2948TIP3   OH235766   6.626   3.697   0.028 -0.1115 -0.3988  0.3754
 2948TIP3    H135767   6.570   3.762   7.057  0.7749 -0.9592 -1.7942
 2948TIP3    H235768   6.579   3.614   0.017 -0.0025 -0.5196  0.7873
 2949TIP3   OH235769   5.363   1.877   0.424  0.5500  0.2239  0.4485
 2949TIP3    H135770   5.362   1.798   0.370  0.3575  0.0488  0.7039
 2949TIP3    H235771   5.342   1.845   0.512  1.8395  0.3647  0.8195
 2950TIP3   OH235772   8.295   5.497   0.333  0.7120  0.5277 -0.0990
 2950TIP3    H135773   8.359   5.436   0.297  0.9183  1.2668 -1.0259
 2950TIP3    H235774   8.300   5.574   0.276 -1.1541  0.5183 -0.3304
 2951TIP3   OH235775   0.204   2.630   1.068 -0.2955 -0.0351  0.3996
 2951TIP3    H135776   0.185   2.665   1.156  0.2181  0.0747  0.4689
 2951TIP3    H235777   0.240   2.543   1.084  0.5308  0.2815  0.3498
 2952TIP3   OH235778   3.707   4.316   6.866  0.0277  0.1148 -0.7813
 2952TIP3    H135779   3.706   4.300   6.960 -0.1419 -0.2985 -0.8483
 2952TIP3    H235780   3.774   4.382   6.853 -0.0228  0.2519 -0.3568
 2953TIP3   OH235781   6.410   5.407   6.161  0.3278 -0.2815 -0.0518
 2953TIP3    H135782   6.346   5.389   6.230  2.1904 -0.5390  1.7112
 2953TIP3    H235783   6.491   5.370   6.194  1.6248  0.9215 -1.7415
 2954TIP3   OH235784   4.514   6.054   6.733 -0.5025 -0.4652 -0.3690
 2954TIP3    H135785   4.463   5.984   6.774 -1.4259  0.1629 -0.4111
 2954TIP3    H235786   4.597   6.054   6.781 -0.9826 -0.7419  0.4990
 2955TIP3   OH235787   8.447   1.767   6.387  0.1147 -0.0460 -0.0984
 2955TIP3    H135788   0.004   1.793   6.386  0.1138  0.0107 -1.4420
 2955TIP3    H235789   8.400   1.846   6.359  0.0763 -1.2207 -3.8849
 2956TIP3   OH235790   4.513   5.578   0.439 -0.2062  0.0800  0.2081
 2956TIP3    H135791   4.607   5.564   0.450 -0.3299 -1.1704 -0.0740
 2956TIP3    H235792   4.484   5.618   0.521  0.5920  0.6088  0.2345
 2957TIP3   OH235793   2.969   6.872   6.623 -0.0298  0.2236 -1.1148
 2957TIP3    H135794   2.923   6.889   6.705  1.5641  0.6542 -0.2576
 2957TIP3    H235795   3.007   6.785   6.635  1.5040  0.9060 -0.7083
 2958TIP3   OH235796   0.359   1.620   6.653  0.0761 -0.6650  0.3208
 2958TIP3    H135797   0.271   1.585   6.666 -1.4527  3.1630  1.5290
 2958TIP3    H235798   0.408   1.588   6.729 -1.3004 -0.1130  1.4955
 2959TIP3   OH235799   0.894   6.941   0.175 -0.0297  0.2876  0.4730
 2959TIP3    H135800   0.845   7.021   0.159 -0.3311  0.4627  2.0940
 2959TIP3    H235801   0.967   6.968   0.232  0.9726 -0.2632 -0.5070
 2960TIP3   OH235802   5.897   3.605   6.005 -0.2383  0.8549  0.2588
 2960TIP3    H135803   5.865   3.536   5.947  0.1367  1.0359 -0.1756
 2960TIP3    H235804   5.992   3.603   5.994  0.0108 -0.2229  2.1341
 2961TIP3   OH235805   6.953   8.196   0.097  0.4278  0.4641 -0.1712
 2961TIP3    H135806   6.978   8.173   0.186 -0.1444  0.0086 -0.1258
 2961TIP3    H235807   6.957   8.292   0.095 -2.1324  0.7020  1.1511
 2962TIP3   OH235808   2.595   0.560   0.532  0.0487 -0.1323  0.6493
 2962TIP3    H135809   2.564   0.604   0.452  0.8172  0.2020  0.5274
 2962TIP3    H235810   2.517   0.552   0.587 -0.1359  1.2729  0.6182
 2963TIP3   OH235811   4.249   6.232   6.950  0.8731 -0.4816 -0.1835
 2963TIP3    H135812   4.292   6.317   6.957  1.8700 -0.9737 -0.0722
 2963TIP3    H235813   4.200   6.223   7.031 -1.1944  0.9873 -1.1975
 2964TIP3   OH235814   6.675   0.490   4.841 -0.2972  0.1593  0.5924
 2964TIP3    H135815   6.698   0.397   4.853 -0.0663  0.3030  1.3222
 2964TIP3    H235816   6.611   0.508   4.910 -0.7592  0.4031  0.1012
 2965TIP3   OH235817   4.311   1.210   6.598  0.6597  0.3486  0.3247
 2965TIP3    H135818   4.384   1.149   6.607  0.3832  0.1209  1.0502
 2965TIP3    H235819   4.245   1.178   6.660 -1.6577 -1.7549 -2.8751
 2966TIP3   OH235820   3.818   3.246   6.460 -0.0885 -0.3549 -0.3043
 2966TIP3    H135821   3.775   3.324   6.426  0.3063  0.2066  0.4534
 2966TIP3    H235822   3.747   3.183   6.473 -0.6548  0.4399  0.6193
 2967TIP3   OH235823   8.330   7.765   1.193  0.4519  0.4370 -0.2507
 2967TIP3    H135824   8.352   7.790   1.283  1.8881  0.6038 -0.6212
 2967TIP3    H235825   8.334   7.846   1.144  2.1949 -0.0138 -0.9121
 2968TIP3   OH235826   0.463   5.605   0.991 -0.1222 -0.2261  0.6579
 2968TIP3    H135827   0.499   5.522   0.961 -0.3940  0.2420 -1.0933
 2968TIP3    H235828   0.538   5.656   1.020  0.4306  0.0170 -1.1169
 2969TIP3   OH235829   3.270   0.632   0.660  0.4256 -0.6499 -0.2224
 2969TIP3    H135830   3.214   0.689   0.713  1.4016 -0.7591  0.9700
 2969TIP3    H235831   3.289   0.684   0.582 -0.0544  0.0055  0.0791
 2970TIP3   OH235832   5.521   0.050   1.542  0.0300  0.1699  0.2213
 2970TIP3    H135833   5.519   0.120   1.608  2.1806 -0.1159  0.6536
 2970TIP3    H235834   5.433   0.013   1.544 -0.1875  0.6841  2.3886
 2971TIP3   OH235835   8.281   1.973   6.312  0.7896 -0.2359  0.8976
 2971TIP3    H135836   8.205   2.031   6.312 -0.1344 -1.3615 -0.7191
 2971TIP3    H235837   8.346   2.019   6.259  1.0696  0.5091  1.8694
 2972TIP3   OH235838   7.406   0.155   6.199 -0.1909 -0.9137 -0.3031
 2972TIP3    H135839   7.394   0.237   6.247 -0.1362 -2.2141  2.0646
 2972TIP3    H235840   7.342   0.159   6.128  0.2582  1.4246 -0.6515
 2973TIP3   OH235841   6.295   0.542   6.962  0.0924  0.0221  0.0828
 2973TIP3    H135842   6.215   0.508   7.001 -0.3690 -1.8810 -2.3034
 2973TIP3    H235843   6.275   0.632   6.939 -0.8455  0.0163  0.8346
 2974TIP3   OH235844   3.669   3.828   0.617 -0.5175  0.3109  0.1368
 2974TIP3    H135845   3.738   3.893   0.633  0.0749 -0.1051 -0.6921
 2974TIP3    H235846   3.665   3.778   0.699  1.2501 -0.6527 -0.3076
 2975TIP3   OH235847   6.361   6.267   0.543  0.3771 -0.3885 -0.1955
 2975TIP3    H135848   6.286   6.318   0.512 -1.7288 -3.6421 -0.9509
 2975TIP3    H235849   6.358   6.274   0.638 -0.4729  0.0450 -0.2526
 2976TIP3   OH235850   4.670   1.877   0.863  0.0218 -0.0071  0.2333
 2976TIP3    H135851   4.620   1.899   0.785  0.3338  0.2150  0.0931
 2976TIP3    H235852   4.669   1.782   0.867 -1.0726  0.0169  0.6662
 2977TIP3   OH235853   6.254   2.319   5.159 -0.0529 -0.3454 -0.1242
 2977TIP3    H135854   6.230   2.402   5.118 -3.1657 -1.0246  0.0936
 2977TIP3    H235855   6.172   2.269   5.162  1.4469 -2.9280  0.9324
 2978TIP3   OH235856   1.904   3.345   6.913  0.4410 -0.2261  0.3086
 2978TIP3    H135857   1.912   3.285   6.987  1.9573 -0.8268 -0.3083
 2978TIP3    H235858   1.812   3.336   6.885 -0.0437 -0.2787  1.8472
 2979TIP3   OH235859   1.758   7.001   5.480 -0.1531 -0.3858 -0.5276
 2979TIP3    H135860   1.671   7.026   5.447 -0.4576  0.0829  0.5753
 2979TIP3    H235861   1.787   6.932   5.420 -0.9916 -0.0823 -1.3184
 2980TIP3   OH235862   0.667   3.910   1.328 -0.1615 -0.4681  0.4608
 2980TIP3    H135863   0.686   3.986   1.383  2.0771 -0.5927 -0.0460
 2980TIP3    H235864   0.753   3.877   1.301 -1.1201 -1.9511 -1.0283
 2981TIP3   OH235865   0.095   6.737   6.003 -0.4944 -0.1228 -0.3567
 2981TIP3    H135866   0.062   6.822   5.974 -0.3535 -0.0919 -0.4282
 2981TIP3    H235867   0.016   6.685   6.019 -0.6363  0.5183  1.2266
 2982TIP3   OH235868   0.651   7.201   6.659  0.0922 -0.7127  0.6037
 2982TIP3    H135869   0.631   7.285   6.618 -1.8338  0.2092  3.1756
 2982TIP3    H235870   0.747   7.196   6.658  0.2024  0.8772 -0.7779
 2983TIP3   OH235871   6.631   7.445   0.568  0.4599 -0.0742 -0.5956
 2983TIP3    H135872   6.626   7.350   0.575  1.0607 -0.2224 -2.0131
 2983TIP3    H235873   6.723   7.464   0.551  0.7727  0.9553  1.8131
 2984TIP3   OH235874   1.540   4.012   6.751 -0.1606  0.2768  1.0540
 2984TIP3    H135875   1.450   4.019   6.719 -0.1346  1.8676  1.2566
 2984TIP3    H235876   1.593   3.999   6.672 -0.6223 -1.5812  1.0095
 2985TIP3   OH235877   5.717   5.667   1.222  0.4027 -0.0734  0.1411
 2985TIP3    H135878   5.675   5.588   1.256 -2.9526  2.9794  4.3321
 2985TIP3    H235879   5.778   5.693   1.291  1.1580  1.1988 -0.9566
 2986TIP3   OH235880   0.553   4.290   6.225 -0.6881 -0.8623 -0.3203
 2986TIP3    H135881   0.468   4.298   6.181 -0.0681  1.0739 -1.2647
 2986TIP3    H235882   0.594   4.376   6.215  1.7823 -1.9894 -0.6928
 2987TIP3   OH235883   6.537   3.621   6.003  0.7824  0.1638 -0.5605
 2987TIP3    H135884   6.475   3.684   6.040 -0.3243 -1.1905 -0.0112
 2987TIP3    H235885   6.606   3.675   5.964  0.0420  1.6921  0.1626
 2988TIP3   OH235886   6.620   4.896   1.723 -0.0134 -0.9530 -0.1819
 2988TIP3    H135887   6.675   4.890   1.801 -0.0689  0.7871  0.0416
 2988TIP3    H235888   6.531   4.906   1.758 -0.2377 -1.7089 -0.5109
 2989TIP3   OH235889   3.061   2.472   1.209  0.1188  0.0574 -0.2514
 2989TIP3    H135890   3.024   2.557   1.185  0.7027  0.8611  1.5692
 2989TIP3    H235891   3.031   2.456   1.298  2.2180 -0.3537  0.4416
 2990TIP3   OH235892   2.360   5.714   1.886 -0.4832 -0.2256 -0.2555
 2990TIP3    H135893   2.387   5.648   1.950 -1.8081  0.7909  1.4769
 2990TIP3    H235894   2.342   5.665   1.806  3.6571 -1.2702 -0.7573
 2991TIP3   OH235895   7.524   5.340   0.727 -0.3517  0.6397 -0.2189
 2991TIP3    H135896   7.521   5.412   0.663  0.1321  0.6236 -0.2627
 2991TIP3    H235897   7.568   5.376   0.803  0.6777  0.1412 -0.5671
 2992TIP3   OH235898   6.937   1.231   6.143  0.2297 -0.2736  0.6057
 2992TIP3    H135899   6.999   1.160   6.160  1.8146  1.3264  1.9656
 2992TIP3    H235900   6.909   1.218   6.053  1.5183 -1.8317  0.3918
 2993TIP3   OH235901   7.520   0.370   5.596  0.5197 -0.2795  0.0049
 2993TIP3    H135902   7.506   0.463   5.582  2.2618  0.1040  0.5797
 2993TIP3    H235903   7.512   0.358   5.691 -0.6191 -0.9070 -0.1492
 2994TIP3   OH235904   4.991   5.871   6.465  0.8715  0.3460  0.5759
 2994TIP3    H135905   5.014   5.837   6.552  2.3873  1.0115  0.4782
 2994TIP3    H235906   5.069   5.920   6.438 -0.3651  1.9461 -0.2604
 2995TIP3   OH235907   2.709   1.758   0.734 -0.4165  0.0724  0.4854
 2995TIP3    H135908   2.752   1.792   0.812 -1.3432 -1.5362  1.7754
 2995TIP3    H235909   2.778   1.710   0.688  0.6609  2.7550 -0.8712
 2996TIP3   OH235910   2.114   4.779   5.990  0.3449  0.0984 -0.5939
 2996TIP3    H135911   2.027   4.811   6.015  0.5922  2.2814 -2.2708
 2996TIP3    H235912   2.154   4.752   6.072 -2.2138 -1.9201  0.1535
 2997TIP3   OH235913   0.141   1.579   0.512  0.1023  0.5355  0.7873
 2997TIP3    H135914   0.064   1.537   0.550 -0.5397  0.6373 -0.3544
 2997TIP3    H235915   0.115   1.599   0.422  2.0327 -1.0029 -0.1825
 2998TIP3   OH235916   3.148   3.509   6.914 -0.2128  0.0840 -0.0194
 2998TIP3    H135917   3.163   3.465   6.998  0.5592  0.0221 -0.1840
 2998TIP3    H235918   3.225   3.564   6.902  0.4943 -1.1842 -1.4950
 2999TIP3   OH235919   4.600   2.681   5.995  0.0723  0.3432  0.2109
 2999TIP3    H135920   4.523   2.659   5.943 -1.2302  0.0243  2.1346
 2999TIP3    H235921   4.649   2.744   5.942 -0.8964 -0.3398 -1.5566
 3000TIP3   OH235922   6.794   2.154   6.521  0.9593 -0.3476 -0.0931
 3000TIP3    H135923   6.871   2.128   6.470 -0.3283  0.1435 -2.4083
 3000TIP3    H235924   6.771   2.241   6.488  0.6183  0.4518  2.0714
 3001TIP3   OH235925   8.259   5.058   5.763  0.3587  0.1952 -0.0975
 3001TIP3    H135926   8.340   5.106   5.775  0.7516 -0.2552 -0.8544
 3001TIP3    H235927   8.257   5.037   5.670 -0.1553 -0.6212  0.0843
 3002TIP3   OH235928   3.709   7.571   1.759 -0.1372  0.4913  0.4524
 3002TIP3    H135929   3.780   7.634   1.752  1.5497 -1.1013  2.2074
 3002TIP3    H235930   3.705   7.549   1.852 -2.8150  0.3322  0.3889
 3003TIP3   OH235931   1.521   1.591   0.437 -0.4056 -0.2733  0.1863
 3003TIP3    H135932   1.531   1.499   0.463 -1.5420 -1.0017 -1.7175
 3003TIP3    H235933   1.493   1.587   0.345 -0.5368  1.9861  0.0729
 3004TIP3   OH235934   7.812   7.785   0.314  0.0385 -0.4524  0.3250
 3004TIP3    H135935   7.743   7.810   0.376 -1.1268 -2.2586 -0.1579
 3004TIP3    H235936   7.789   7.696   0.288  1.4736 -0.3671 -1.3973
 3005TIP3   OH235937   2.933   3.985   6.519  0.1196  0.3722  0.1272
 3005TIP3    H135938   2.957   4.066   6.474 -0.6852 -0.0253 -1.0432
 3005TIP3    H235939   2.858   4.009   6.573 -0.5655  0.2524 -0.7621
 3006TIP3   OH235940   6.770   4.744   6.612 -0.6133  0.2383 -0.2749
 3006TIP3    H135941   6.824   4.793   6.550  2.0997 -0.5483  1.2927
 3006TIP3    H235942   6.724   4.811   6.662 -1.0563  0.9350 -1.5561
 3007TIP3   OH235943   0.604   1.116   5.771 -0.2988 -0.5991  0.1725
 3007TIP3    H135944   0.528   1.154   5.726  1.0907 -0.6940 -2.4204
 3007TIP3    H235945   0.671   1.183   5.766  0.5139 -1.3782  0.3670
 3008TIP3   OH235946   4.732   3.781   1.251 -0.0845  0.6432  0.6749
 3008TIP3    H135947   4.797   3.712   1.239 -0.6590  0.0140  1.0710
 3008TIP3    H235948   4.718   3.785   1.345 -1.5554 -0.1488  0.5286
 3009TIP3   OH235949   4.500   1.551   6.891  0.0162  0.2989 -0.4175
 3009TIP3    H135950   4.524   1.560   6.799 -1.2984  0.0887 -0.8123
 3009TIP3    H235951   4.516   1.460   6.912 -0.7017  0.0837 -0.7687
 3010TIP3   OH235952   5.150   0.294   6.339  0.3598  0.0889  0.1121
 3010TIP3    H135953   5.166   0.375   6.386  1.9578 -0.8752  1.3059
 3010TIP3    H235954   5.097   0.241   6.400  0.8595 -0.4480  0.0898
 3011TIP3   OH235955   2.449   8.432   0.686  0.1603  1.0045  0.2339
 3011TIP3    H135956   2.462   8.338   0.702 -0.1881  0.6518 -1.3877
 3011TIP3    H235957   2.359   8.448   0.713 -0.8843  0.1188 -2.4367
 3012TIP3   OH235958   0.265   4.721   0.068 -0.1131  0.2713 -0.0030
 3012TIP3    H135959   0.324   4.697   7.067 -0.7984  1.2973 -0.9427
 3012TIP3    H235960   0.191   4.660   0.059  0.3707 -0.4102  0.6036
 3013TIP3   OH235961   4.693   3.821   1.519  0.0106 -0.1826 -0.4598
 3013TIP3    H135962   4.731   3.905   1.543 -2.3255  0.3412  1.8674
 3013TIP3    H235963   4.720   3.761   1.589  1.6014 -1.4483 -2.0550
 3014TIP3   OH235964   7.413   5.289   6.345  0.2906  0.0341 -0.2606
 3014TIP3    H135965   7.419   5.200   6.310 -0.8500 -0.3924  0.5619
 3014TIP3    H235966   7.384   5.277   6.435 -0.4395  1.2729 -0.3159
 3015TIP3   OH235967   5.414   3.006   5.892 -0.2824  0.0171 -0.2985
 3015TIP3    H135968   5.418   3.096   5.859 -2.0355  1.0386  1.9612
 3015TIP3    H235969   5.456   3.011   5.978 -1.6927 -0.9549  0.4931
 3016TIP3   OH235970   0.841   7.662   6.086 -0.7331 -0.1546  0.0381
 3016TIP3    H135971   0.825   7.689   5.995 -0.9091 -2.4795 -0.6869
 3016TIP3    H235972   0.769   7.602   6.106  0.6322 -1.5568  0.8681
 3017TIP3   OH235973   7.906   7.930   5.826 -0.6062  0.7162 -0.8532
 3017TIP3    H135974   7.998   7.904   5.819  0.1070  2.3363  1.1627
 3017TIP3    H235975   7.857   7.859   5.787  1.5150 -0.2044 -1.9751
 3018TIP3   OH235976   0.817   1.224   1.675  0.1672 -0.3218  0.3357
 3018TIP3    H135977   0.860   1.225   1.590 -0.9226 -0.5507 -0.2268
 3018TIP3    H235978   0.878   1.270   1.733  1.2742 -0.8403 -0.3753
 3019TIP3   OH235979   6.779   1.136   0.520 -0.9021  0.0970  0.4971
 3019TIP3    H135980   6.686   1.143   0.496 -0.4979 -2.1767 -2.3176
 3019TIP3    H235981   6.826   1.151   0.437  1.0585 -1.7599  1.1840
 3020TIP3   OH235982   5.763   4.237   0.680  0.2078  0.2027 -0.1207
 3020TIP3    H135983   5.713   4.166   0.640  0.3571 -0.0867  0.2055
 3020TIP3    H235984   5.741   4.314   0.628  0.3476 -0.1565 -0.7245
 3021TIP3   OH235985   0.441   5.773   0.639 -0.0515 -0.2069 -0.5143
 3021TIP3    H135986   0.453   5.848   0.581 -2.3615  0.3503 -0.3552
 3021TIP3    H235987   0.478   5.803   0.723 -2.4389  1.4862  0.0305
 3022TIP3   OH235988   7.074   8.311   5.971 -0.3622 -0.1238  0.7355
 3022TIP3    H135989   7.101   8.353   5.889  1.5686  1.0342  1.8808
 3022TIP3    H235990   6.979   8.317   5.970 -0.3587  0.4102 -1.1387
 3023TIP3   OH235991   6.565   6.516   5.815 -0.3555  0.2064 -0.1002
 3023TIP3    H135992   6.483   6.544   5.774 -0.8173  2.2794  2.0019
 3023TIP3    H235993   6.628   6.583   5.790  1.0873 -1.8615 -2.4850
 3024TIP3   OH235994   3.084   3.859   4.963  0.1277 -0.5256 -0.4820
 3024TIP3    H135995   3.147   3.912   5.011  0.9330 -2.4088  0.6256
 3024TIP3    H235996   3.001   3.905   4.974  1.0723  1.4369 -1.0799
 3025TIP3   OH235997   5.471   0.156   1.994  0.2933 -0.0528  0.3511
 3025TIP3    H135998   5.543   0.189   2.048 -0.5940 -1.5133  2.5657
 3025TIP3    H235999   5.418   0.104   2.054 -1.1321 -1.2624 -1.8263
 3026TIP3   OH236000   1.091   6.890   0.677  0.1866  0.2740  0.2640
 3026TIP3    H136001   1.169   6.839   0.699  1.1386  1.7797  0.4528
 3026TIP3    H236002   1.023   6.823   0.661  1.6891 -1.0986 -0.7006
 3027TIP3   OH236003   0.682   5.241   5.589 -0.0419  0.5814  0.3542
 3027TIP3    H136004   0.594   5.203   5.581 -0.1901  1.1562 -0.9566
 3027TIP3    H236005   0.716   5.242   5.500  1.8746 -0.9097  0.9684
 3028TIP3   OH236006   5.500   2.517   0.415  0.5029  0.9733  0.0230
 3028TIP3    H136007   5.595   2.511   0.413  0.6206  1.7557  1.4968
 3028TIP3    H236008   5.482   2.609   0.432 -0.4935  0.7297  0.3736
 3029TIP3   OH236009   5.642   3.721   6.754 -0.2033 -0.5073 -0.0176
 3029TIP3    H136010   5.719   3.679   6.718 -0.0035 -1.6188  1.6053
 3029TIP3    H236011   5.677   3.785   6.816 -0.5704 -0.7214  0.4149
 3030TIP3   OH236012   3.781   8.061   6.943  0.4520  0.0614  0.2388
 3030TIP3    H136013   3.773   8.125   7.014  2.7879  0.8875 -0.1363
 3030TIP3    H236014   3.788   7.977   6.987  0.7535  0.4491  0.9545
 3031TIP3   OH236015   5.435   8.419   6.399  0.2706  0.1009  0.0497
 3031TIP3    H136016   5.404   8.373   6.477 -0.4853 -1.8985 -1.3234
 3031TIP3    H236017   5.525   8.388   6.388  1.0767  1.8845  1.1354
 3032TIP3   OH236018   0.128   5.764   6.193  0.0272  0.3465  0.1578
 3032TIP3    H136019   0.155   5.837   6.249  1.6851 -0.4122  0.4098
 3032TIP3    H236020   0.079   5.706   6.252 -1.0653  1.1055  0.0188
 3033TIP3   OH236021   4.834   2.935   0.163 -0.0974  0.8235 -0.6074
 3033TIP3    H136022   4.899   2.911   0.097 -1.1833 -1.4724 -0.9155
 3033TIP3    H236023   4.886   2.950   0.242  0.8045 -2.9485 -0.3047
 3034TIP3   OH236024   2.546   0.886   6.197  0.4498  0.4220 -0.1525
 3034TIP3    H136025   2.622   0.866   6.141  2.0256 -0.3225  2.1179
 3034TIP3    H236026   2.470   0.857   6.146  1.8655 -1.0310 -1.5467
 3035TIP3   OH236027   3.704   4.101   6.709  0.1648  0.6340 -0.2260
 3035TIP3    H136028   3.775   4.041   6.734 -1.4321 -0.9148  0.8296
 3035TIP3    H236029   3.725   4.182   6.755  1.5478  0.4115 -0.4019
 3036TIP3   OH236030   8.305   2.082   1.498  0.4239 -0.5911 -0.0652
 3036TIP3    H136031   8.285   2.162   1.546 -1.1352 -0.8759 -0.1800
 3036TIP3    H236032   8.331   2.020   1.567 -0.1018 -0.4986  0.2227
 3037TIP3   OH236033   7.154   4.097   6.891  0.3328  0.4354 -0.4197
 3037TIP3    H136034   7.186   4.062   6.808 -3.6438  0.1756 -2.0940
 3037TIP3    H236035   7.109   4.178   6.866 -1.9444 -0.2203  1.1880
 3038TIP3   OH236036   4.881   1.063   7.067  0.0635  0.0464 -0.5923
 3038TIP3    H136037   4.848   1.002   7.000 -0.7698 -0.2793  0.0870
 3038TIP3    H236038   4.927   1.130   7.017  0.1232 -0.5910 -1.4408
 3039TIP3   OH236039   5.972   2.784   0.847  0.3732 -0.2132  0.1008
 3039TIP3    H136040   5.918   2.756   0.921  2.4397 -0.3088  1.6690
 3039TIP3    H236041   6.020   2.706   0.821  0.9719  0.2282 -0.1579
 3040TIP3   OH236042   0.227   0.857   0.452  0.7899  0.1129  0.4828
 3040TIP3    H136043   0.309   0.842   0.407  0.8570 -0.6833  0.8540
 3040TIP3    H236044   0.182   0.924   0.400  1.1974 -0.2354 -0.3208
 3041TIP3   OH236045   0.452   5.659   6.656  0.2468 -0.4669 -0.2630
 3041TIP3    H136046   0.452   5.572   6.616 -1.3944 -0.5272 -0.1993
 3041TIP3    H236047   0.404   5.714   6.594  1.7766  0.5603 -0.5836
 3042TIP3   OH236048   0.666   2.173   0.057 -0.5416  0.1368 -0.6203
 3042TIP3    H136049   0.613   2.252   0.056 -0.1577  0.3905 -1.4013
 3042TIP3    H236050   0.616   2.110   0.004 -1.4812 -0.5891  1.0401
 3043TIP3   OH236051   7.910   0.847   0.054  0.5197 -0.2707  0.0812
 3043TIP3    H136052   7.943   0.772   0.104  1.2014 -0.9125 -1.2680
 3043TIP3    H236053   7.967   0.851   7.048 -0.7242  0.4501 -0.8296
 3044TIP3   OH236054   3.246   3.343   5.796  0.1543 -0.5058 -0.1680
 3044TIP3    H136055   3.266   3.263   5.748  2.5570  0.3419 -0.7225
 3044TIP3    H236056   3.262   3.322   5.888  3.4365 -0.0781 -0.5096
 3045TIP3   OH236057   2.301   6.305   0.324 -0.1770  0.2002 -0.7096
 3045TIP3    H136058   2.369   6.274   0.264  1.2885  0.7416  0.6074
 3045TIP3    H236059   2.224   6.315   0.268  1.3647  1.6713 -2.7717
 3046TIP3   OH236060   4.379   7.224   0.106  0.8000 -0.0700 -0.7264
 3046TIP3    H136061   4.421   7.162   0.166 -0.4232  0.1321  0.3874
 3046TIP3    H236062   4.324   7.279   0.162 -0.5287  0.0131 -2.0355
 3047TIP3   OH236063   5.742   4.833   6.249 -0.2341 -0.4822  0.4114
 3047TIP3    H136064   5.832   4.819   6.219 -0.7299 -1.0099 -0.8993
 3047TIP3    H236065   5.691   4.843   6.169 -1.2158  0.7258  1.1622
 3048TIP3   OH236066   5.378   6.672   1.373  0.3826 -0.6778  0.2356
 3048TIP3    H136067   5.452   6.721   1.338  0.2948 -1.0817 -0.5318
 3048TIP3    H236068   5.314   6.739   1.398 -0.1156 -0.3981 -1.6337
 3049TIP3   OH236069   0.868   6.627   5.878  0.5338 -0.6351  0.3606
 3049TIP3    H136070   0.890   6.720   5.881  3.5080 -1.1542 -1.5913
 3049TIP3    H236071   0.809   6.614   5.952 -0.5224  2.8916  0.2951
 3050TIP3   OH236072   7.265   2.762   5.145  0.2532 -0.3127 -0.7238
 3050TIP3    H136073   7.271   2.705   5.222  1.0364 -1.8268 -1.8343
 3050TIP3    H236074   7.318   2.838   5.166 -1.9013  0.7540  1.3456
 3051TIP3   OH236075   7.045   4.171   6.364 -0.6449 -0.6512 -0.0359
 3051TIP3    H136076   7.034   4.179   6.459  0.3148  0.1266  0.0269
 3051TIP3    H236077   7.039   4.261   6.331  0.3085 -0.7622 -0.5497
 3052TIP3   OH236078   4.594   2.731   0.989 -0.0967 -0.0676 -0.0718
 3052TIP3    H136079   4.517   2.750   1.043  0.9094 -0.3919  1.5410
 3052TIP3    H236080   4.561   2.671   0.922 -1.2564 -0.2014  0.5782
 3053TIP3   OH236081   7.229   2.587   0.936 -0.3279 -0.4012  0.3433
 3053TIP3    H136082   7.140   2.601   0.904 -0.2213  1.3273  0.6852
 3053TIP3    H236083   7.285   2.616   0.865 -0.0491 -0.3107  0.6003
 3054TIP3   OH236084   5.787   3.808   5.843  0.3111 -0.2672 -0.2206
 3054TIP3    H136085   5.820   3.718   5.852  0.8493 -0.0710 -0.2373
 3054TIP3    H236086   5.816   3.852   5.923  1.4260  0.3242 -0.9314
 3055TIP3   OH236087   6.146   5.365   0.939 -0.1282  0.3982  0.0108
 3055TIP3    H136088   6.205   5.414   0.881 -0.4338 -1.6469 -2.1785
 3055TIP3    H236089   6.075   5.426   0.958 -0.3458  0.9589 -2.3557
 3056TIP3   OH236090   6.908   3.130   0.901  0.4596  0.6775  0.2338
 3056TIP3    H136091   6.962   3.159   0.828 -0.6501  1.7809 -0.1849
 3056TIP3    H236092   6.819   3.128   0.865  0.1844 -0.9792  0.9361
 3057TIP3   OH236093   1.009   2.395   0.184  0.1007  0.1420 -0.1020
 3057TIP3    H136094   1.013   2.326   0.118 -1.2214 -0.5878  0.5375
 3057TIP3    H236095   1.061   2.362   0.258  0.8321  0.5660 -0.4172
 3058TIP3   OH236096   7.994   0.057   0.508 -0.0313 -0.1623 -0.1462
 3058TIP3    H136097   8.083   0.022   0.510  0.2927  0.6583  0.0740
 3058TIP3    H236098   7.964   0.044   0.418  0.3385 -0.3709 -0.2386
 3059TIP3   OH236099   6.755   5.240   1.077 -0.0411  0.0911 -0.9782
 3059TIP3    H136100   6.676   5.294   1.079 -0.9246 -1.1391 -1.1234
 3059TIP3    H236101   6.768   5.215   1.169  1.6609  2.2734 -0.5381
 3060TIP3   OH236102   1.722   1.823   0.958  0.1489  0.1819  0.8353
 3060TIP3    H136103   1.718   1.897   1.019  0.1604  0.1191  0.9120
 3060TIP3    H236104   1.673   1.853   0.881  0.9885  0.6520  0.4572
 3061TIP3   OH236105   6.898   1.805   6.029 -0.1000 -0.2775 -0.1544
 3061TIP3    H136106   6.890   1.806   5.933 -1.7198  0.4674 -0.0309
 3061TIP3    H236107   6.822   1.757   6.059 -1.9032  2.9077  0.8890
 3062TIP3   OH236108   3.689   8.476   0.624 -0.4254  0.3875 -0.0197
 3062TIP3    H136109   3.723   8.476   0.713  2.4019 -0.6291 -0.9843
 3062TIP3    H236110   3.742   0.006   0.578 -2.3063  1.4187 -0.8496
 3063TIP3   OH236111   2.168   1.904   5.793 -0.9331 -0.1327  0.8589
 3063TIP3    H136112   2.090   1.879   5.843 -0.7942 -1.7950  0.3016
 3063TIP3    H236113   2.237   1.911   5.859 -1.3064  0.2509  1.2154
 3064TIP3   OH236114   1.919   1.400   5.891  0.2937  0.2224 -0.2838
 3064TIP3    H136115   1.964   1.380   5.808  1.1131 -0.5501  0.3309
 3064TIP3    H236116   1.985   1.448   5.942  0.5899 -1.2464  0.7792
 3065TIP3   OH236117   0.406   5.084   5.172  0.0032  0.7306  0.3748
 3065TIP3    H136118   0.413   4.991   5.150  2.6014  0.6488  1.2049
 3065TIP3    H236119   0.323   5.112   5.134  0.4048 -1.2917 -2.2684
 3066TIP3   OH236120   2.156   6.260   0.790 -0.3782  0.3873 -0.8772
 3066TIP3    H136121   2.210   6.242   0.713 -0.3069  0.5775 -0.8724
 3066TIP3    H236122   2.202   6.217   0.862 -0.0892  0.7633 -0.8274
 3067TIP3   OH236123   8.513   4.363   6.053  0.0024 -0.2571 -0.0391
 3067TIP3    H136124   0.059   4.391   6.011  0.6147 -0.7386  0.7895
 3067TIP3    H236125   8.468   4.444   6.076 -0.2080  0.0098 -1.3377
 3068TIP3   OH236126   0.192   6.867   1.880 -0.3100 -0.1686  0.3548
 3068TIP3    H136127   0.101   6.841   1.896  0.1107 -0.1934  3.0879
 3068TIP3    H236128   0.185   6.958   1.850 -1.3358 -1.0627 -2.5203
 3069TIP3   OH236129   1.924   8.533   6.533  0.4103  0.4750 -0.7172
 3069TIP3    H136130   1.950   8.445   6.505  0.7017  0.3222  0.0119
 3069TIP3    H236131   1.856   0.024   6.470  0.3163 -0.2686 -0.9365
 3070TIP3   OH236132   1.883   0.560   5.086  0.2527 -0.0085  0.1331
 3070TIP3    H136133   1.799   0.527   5.054  0.2139 -2.5096  2.5470
 3070TIP3    H236134   1.935   0.482   5.103  2.4585  1.4383  0.4092
 3071TIP3   OH236135   5.438   5.902   5.060  0.1042  0.0565 -0.4260
 3071TIP3    H136136   5.528   5.934   5.065  0.7322 -1.2829 -1.9863
 3071TIP3    H236137   5.446   5.814   5.022 -1.7707 -0.6637  0.6933
 3072TIP3   OH236138   1.405   2.978   6.029  0.0771 -0.1193  0.7870
 3072TIP3    H136139   1.333   2.916   6.021  2.0456 -2.3686 -1.1551
 3072TIP3    H236140   1.433   2.970   6.120 -0.0318 -1.7871  0.7086
 3073TIP3   OH236141   1.536   3.017   5.802 -0.1647  0.0206  0.2456
 3073TIP3    H136142   1.563   2.926   5.796  0.1541  0.1402 -0.1646
 3073TIP3    H236143   1.486   3.022   5.884 -0.7526 -0.6664 -0.0560
 3074TIP3   OH236144   6.860   7.130   1.718 -0.1836  0.0539 -0.4982
 3074TIP3    H136145   6.794   7.198   1.706  0.2823  0.1334 -3.1760
 3074TIP3    H236146   6.836   7.061   1.656 -0.3898 -2.1307  1.8312
 3075TIP3   OH236147   8.385   4.651   1.241 -0.3510  0.0388 -0.3063
 3075TIP3    H136148   8.367   4.626   1.151  1.0689  0.6653 -0.7761
 3075TIP3    H236149   8.312   4.709   1.264 -1.4425 -1.1709 -0.5701
 3076TIP3   OH236150   1.205   0.624   0.791 -0.2921  0.4730 -0.8811
 3076TIP3    H136151   1.173   0.681   0.862  0.1112 -0.7666  0.3318
 3076TIP3    H236152   1.293   0.600   0.818 -0.2948 -0.3718 -1.6033
 3077TIP3   OH236153   2.852   2.622   6.183  0.2558 -0.1629  0.1932
 3077TIP3    H136154   2.882   2.531   6.179 -1.1396 -0.6093 -1.1151
 3077TIP3    H236155   2.766   2.621   6.140 -0.6628  1.4405  1.8310
 3078TIP3   OH236156   6.134   6.189   1.918 -0.3041  0.0577 -0.0244
 3078TIP3    H136157   6.077   6.224   1.849  0.4709 -0.1212 -0.7652
 3078TIP3    H236158   6.110   6.239   1.996 -0.0494  1.4264 -0.7838
 3079TIP3   OH236159   1.936   4.850   4.793 -0.2431  0.1589 -0.3876
 3079TIP3    H136160   2.009   4.898   4.755 -1.6174  2.4637 -0.3420
 3079TIP3    H236161   1.942   4.762   4.754  2.2146  0.4024 -0.7185
 3080TIP3   OH236162   3.193   3.752   5.222 -0.2876 -0.4900  0.0248
 3080TIP3    H136163   3.284   3.722   5.213 -0.3891 -0.7915  0.0016
 3080TIP3    H236164   3.191   3.835   5.176 -0.3421 -1.1107 -1.1315
 3081TIP3   OH236165   3.845   3.845   6.049 -0.4339  0.1204  0.2968
 3081TIP3    H136166   3.885   3.833   6.135 -2.7389  1.5171  1.6641
 3081TIP3    H236167   3.858   3.761   6.005  1.8824 -0.2246  1.4904
 3082TIP3   OH236168   7.467   4.467   0.218 -0.1249  0.1059  0.6293
 3082TIP3    H136169   7.440   4.517   0.296 -0.7091  0.7858  0.0161
 3082TIP3    H236170   7.390   4.470   0.161 -0.2695 -1.7525  0.6761
 3083TIP3   OH236171   2.591   6.680   0.104 -0.0740 -0.6203  0.0841
 3083TIP3    H136172   2.651   6.660   0.032  2.2228 -2.0905  2.2290
 3083TIP3    H236173   2.570   6.595   0.142 -1.4521  0.0933  1.0175
 3084TIP3   OH236174   8.158   2.419   6.478  0.1469 -0.8135  0.3023
 3084TIP3    H136175   8.091   2.476   6.442 -1.5349  0.7719  5.1101
 3084TIP3    H236176   8.110   2.343   6.511  1.4377 -1.8601 -0.1167
 3085TIP3   OH236177   4.036   3.756   6.493  0.0349 -0.3996 -0.1982
 3085TIP3    H136178   4.098   3.687   6.516  0.7293  0.5450  0.8514
 3085TIP3    H236179   4.091   3.831   6.470 -0.6959  0.5200  0.9492
 3086TIP3   OH236180   8.236   4.310   5.682 -0.0000  0.5721  0.0776
 3086TIP3    H136181   8.154   4.268   5.658  0.4811 -1.2787  1.3855
 3086TIP3    H236182   8.274   4.252   5.749  2.7339  0.9092 -1.0260
 3087TIP3   OH236183   8.529   7.609   6.622  0.2749 -0.3875 -0.0126
 3087TIP3    H136184   8.444   7.642   6.651  0.7821  1.4292 -0.4449
 3087TIP3    H236185   0.050   7.617   6.699  0.6015  0.5966 -0.3342
 3088TIP3   OH236186   1.829   0.183   0.068  0.3554  0.1329  0.1825
 3088TIP3    H136187   1.779   0.102   0.057  1.3687 -0.6751  1.3731
 3088TIP3    H236188   1.867   0.177   0.155  1.8986  1.0794 -0.3824
 3089TIP3   OH236189   0.689   2.013   6.284  0.0534  0.5280 -0.0925
 3089TIP3    H136190   0.711   2.071   6.211 -1.7175  0.8847 -0.3715
 3089TIP3    H236191   0.603   1.978   6.262 -0.3447  0.3331  1.6371
 3090TIP3   OH236192   4.358   0.181   5.187 -0.1920 -0.1865  0.0941
 3090TIP3    H136193   4.339   0.273   5.205 -0.7465 -0.2236 -0.2826
 3090TIP3    H236194   4.272   0.141   5.171  0.1740 -0.4031 -1.4492
 3091TIP3   OH236195   5.551   4.163   1.505  0.5793  0.3545 -0.3423
 3091TIP3    H136196   5.461   4.193   1.513  0.8968  1.4971 -0.9959
 3091TIP3    H236197   5.600   4.216   1.569  1.0108  0.6769 -0.9369
 3092TIP3   OH236198   2.704   3.120   6.331 -0.1869 -0.0414 -0.0233
 3092TIP3    H136199   2.690   3.039   6.380  1.6536 -0.0635  0.5524
 3092TIP3    H236200   2.731   3.183   6.398 -4.4537  2.0390  0.0982
 3093TIP3   OH236201   2.138   4.093   0.152  0.0853  0.4685  0.3551
 3093TIP3    H136202   2.136   4.004   0.188  0.9750 -0.0123 -0.7368
 3093TIP3    H236203   2.169   4.148   0.224  0.7660 -0.3031  0.6644
 3094TIP3   OH236204   6.819   0.243   5.031 -0.0302  0.7688  0.0319
 3094TIP3    H136205   6.809   0.149   5.020 -1.0411  1.0240 -1.5915
 3094TIP3    H236206   6.911   0.260   5.010  0.5922  0.0048  1.8865
 3095TIP3   OH236207   5.721   4.474   0.988 -0.1940 -0.4328 -0.3469
 3095TIP3    H136208   5.803   4.519   0.967 -0.7404  0.8223  0.1172
 3095TIP3    H236209   5.740   4.426   1.069  0.5836 -1.5993 -1.1936
 3096TIP3   OH236210   3.454   3.153   6.759  0.0267 -0.9068  0.3643
 3096TIP3    H136211   3.495   3.201   6.830 -0.6068  1.2994 -0.6645
 3096TIP3    H236212   3.369   3.125   6.794 -0.5081  0.6159  0.3771
 3097TIP3   OH236213   7.716   1.038   0.143 -0.0082 -0.1115  0.4951
 3097TIP3    H136214   7.787   0.979   0.117 -0.5056  0.0739 -1.4583
 3097TIP3    H236215   7.638   0.983   0.142  0.2421 -0.7786  4.4632
 3098TIP3   OH236216   5.813   7.508   6.600 -0.3839 -0.5091 -0.1884
 3098TIP3    H136217   5.857   7.514   6.685 -1.6237  0.5950  0.4183
 3098TIP3    H236218   5.809   7.598   6.568 -0.5866 -0.8217 -1.0727
 3099TIP3   OH236219   1.298   7.052   5.754  0.1750 -0.1893  0.0108
 3099TIP3    H136220   1.312   7.090   5.667  0.5423 -0.5113 -0.0725
 3099TIP3    H236221   1.287   6.958   5.738 -1.5011 -0.0456  0.1292
 3100TIP3   OH236222   4.265   6.707   1.907  0.1930  0.3269  0.1831
 3100TIP3    H136223   4.278   6.613   1.922 -1.9863 -0.1562 -0.5832
 3100TIP3    H236224   4.341   6.733   1.855  0.0653 -1.3764 -0.9376
 3101TIP3   OH236225   6.264   8.022   6.895  0.0058  0.4658 -0.0518
 3101TIP3    H136226   6.321   8.097   6.875 -1.1104  1.5006  0.4862
 3101TIP3    H236227   6.229   8.042   6.982  1.4878 -1.8599  1.1632
 3102TIP3   OH236228   2.259   1.250   5.813  0.7418  0.2138  0.0926
 3102TIP3    H136229   2.213   1.291   5.739  2.0169  0.0864 -0.8039
 3102TIP3    H236230   2.276   1.321   5.874 -1.6757  0.0685  1.0427
 3103TIP3   OH236231   8.477   8.492   6.514  0.3486  0.5121  0.1893
 3103TIP3    H136232   8.400   8.513   6.462  0.4795 -0.7000 -0.5399
 3103TIP3    H236233   0.013   8.489   6.450  0.7226  0.1693  0.6186
 3104TIP3   OH236234   0.927   1.638   6.021 -0.5728 -0.3598  0.3909
 3104TIP3    H136235   0.849   1.652   6.074 -1.3826  0.7609 -1.0044
 3104TIP3    H236236   0.972   1.722   6.024  0.9417 -1.1710  1.6694
 3105TIP3   OH236237   2.580   2.786   0.096 -0.2233 -0.2776 -0.1829
 3105TIP3    H136238   2.635   2.857   0.129 -2.1830 -0.2418  3.6174
 3105TIP3    H236239   2.629   2.707   0.117 -0.4223 -0.1691  0.7395
 3106TIP3   OH236240   5.769   7.326   6.331 -0.2775  0.3114 -0.1367
 3106TIP3    H136241   5.745   7.391   6.398  0.2270 -0.4183  0.7840
 3106TIP3    H236242   5.725   7.246   6.358  0.6470 -0.2286 -0.1662
 3107TIP3   OH236243   2.225   4.839   5.648  0.1663 -0.0576 -0.3133
 3107TIP3    H136244   2.235   4.886   5.565 -2.2110 -0.1889 -0.7568
 3107TIP3    H236245   2.248   4.902   5.715  1.7622  0.1750 -1.0464
 3108TIP3   OH236246   3.701   2.912   6.756 -0.2087  0.3660 -0.8615
 3108TIP3    H136247   3.625   2.951   6.798 -0.8985  0.5204 -2.2038
 3108TIP3    H236248   3.680   2.818   6.751  0.2065  0.2271 -0.2095
 3109TIP3   OH236249   7.635   1.386   6.694  0.1108 -0.0512  0.3985
 3109TIP3    H136250   7.567   1.393   6.760  1.1726  0.0784  1.5079
 3109TIP3    H236251   7.698   1.324   6.731  2.0592  1.9996  0.7332
 3110TIP3   OH236252   6.806   0.073   6.115  0.5208 -0.2748  0.6370
 3110TIP3    H136253   6.800   0.066   6.210  1.5420  0.3115  0.7683
 3110TIP3    H236254   6.730   0.026   6.082  0.3765 -0.8479  1.7326
 3111TIP3   OH236255   1.569   1.150   6.848 -0.4474  0.1726 -0.9830
 3111TIP3    H136256   1.555   1.059   6.876 -1.2451  0.7762  0.6844
 3111TIP3    H236257   1.632   1.185   6.910 -1.8739  1.4028 -0.1741
 3112TIP3   OH236258   7.582   1.574   1.789 -0.3030  0.1089 -0.0374
 3112TIP3    H136259   7.530   1.512   1.737 -0.6658 -0.3933  0.9025
 3112TIP3    H236260   7.567   1.548   1.880 -1.2145  2.1525  0.4505
 3113TIP3   OH236261   2.687   4.513   6.666 -0.2802 -0.1580 -0.7626
 3113TIP3    H136262   2.696   4.608   6.662  0.9167 -0.2551 -0.6815
 3113TIP3    H236263   2.614   4.494   6.607  0.6128  0.6548 -2.2026
 3114TIP3   OH236264   6.956   6.767   5.099  0.1910  0.6019  0.4920
 3114TIP3    H136265   6.875   6.718   5.092 -0.0743  0.9077  1.2859
 3114TIP3    H236266   6.990   6.771   5.010 -0.8042  0.7029  0.1109
 3115TIP3   OH236267   0.759   2.116   6.045 -0.2941  1.0343 -0.4281
 3115TIP3    H136268   0.777   2.089   5.956 -2.2852  0.7905 -0.8144
 3115TIP3    H236269   0.820   2.188   6.062  0.7495  0.4528 -1.6251
 3116TIP3   OH236270   1.497   4.984   0.296 -0.5453  0.1729 -0.1132
 3116TIP3    H136271   1.403   4.972   0.310 -0.0385 -2.5711  1.7847
 3116TIP3    H236272   1.527   5.036   0.371 -0.5505  1.1316 -0.7687
 3117TIP3   OH236273   2.035   7.259   1.621  0.2684  0.2408 -0.2056
 3117TIP3    H136274   2.045   7.265   1.716 -0.9939  1.7849 -0.1245
 3117TIP3    H236275   1.963   7.197   1.608  2.0863 -1.9627 -0.3138
 3118TIP3   OH236276   1.164   4.612   6.472 -0.0275 -0.3605  0.1529
 3118TIP3    H136277   1.113   4.673   6.418  0.1528 -0.6939 -0.4090
 3118TIP3    H236278   1.105   4.538   6.485 -0.7371  0.4704  1.9535
 3119TIP3   OH236279   7.907   0.577   6.735 -0.7685 -0.0985 -0.5095
 3119TIP3    H136280   7.872   0.491   6.712  1.3545 -0.8014 -1.3957
 3119TIP3    H236281   7.981   0.558   6.794  1.5789  0.8045 -2.9429
 3120TIP3   OH236282   0.041   3.966   5.945  0.3498 -0.1267 -0.3700
 3120TIP3    H136283   0.135   3.976   5.955  0.7695 -4.0394  1.4727
 3120TIP3    H236284   0.030   3.877   5.911 -2.6842 -0.8724  2.1226
 3121TIP3   OH236285   3.265   3.625   5.853  0.1669  0.5745 -0.3053
 3121TIP3    H136286   3.250   3.537   5.818  1.0932  0.2222  0.1406
 3121TIP3    H236287   3.293   3.676   5.778  0.4198  0.2785 -0.4136
 3122TIP3   OH236288   5.060   0.216   5.628 -0.3349  0.3592 -0.2987
 3122TIP3    H136289   5.029   0.195   5.540 -1.0647  1.9870 -0.4690
 3122TIP3    H236290   5.155   0.215   5.621 -0.2811 -2.6063 -0.2927
 3123TIP3   OH236291   4.807   0.666   1.046  0.2912 -0.1996  0.2596
 3123TIP3    H136292   4.752   0.744   1.059 -0.4781 -0.8968  1.2906
 3123TIP3    H236293   4.846   0.650   1.132  0.4321 -0.9618  0.0548
 3124TIP3   OH236294   4.552   3.901   0.290  0.5279 -0.1169 -0.0124
 3124TIP3    H136295   4.525   3.810   0.293  0.6994 -0.3141 -2.3490
 3124TIP3    H236296   4.646   3.898   0.271  1.3115  0.5928  3.1533
 3125TIP3   OH236297   2.445   3.893   5.235 -0.0045 -0.5825  0.5487
 3125TIP3    H136298   2.466   3.800   5.245  0.9478 -0.3851  0.4978
 3125TIP3    H236299   2.402   3.899   5.150  0.8855 -0.8389  0.0663
 3126TIP3   OH236300   4.082   0.019   0.757 -0.1001  0.0339 -0.2304
 3126TIP3    H136301   3.999   0.051   0.722  0.1619  1.3169  0.2710
 3126TIP3    H236302   4.097   0.073   0.835  1.3799  0.0587 -0.5179
 3127TIP3   OH236303   6.675   2.215   1.940 -0.9954  0.3436 -0.1809
 3127TIP3    H136304   6.752   2.246   1.989 -1.5247  0.3653  0.6721
 3127TIP3    H236305   6.609   2.200   2.008 -1.2359 -1.2441 -0.7273
 3128TIP3   OH236306   7.425   3.032   6.459 -0.0218  0.0947  0.0569
 3128TIP3    H136307   7.439   3.125   6.445 -2.2506  0.2495 -1.4978
 3128TIP3    H236308   7.349   3.027   6.516 -0.2795 -0.7710 -0.3422
 3129TIP3   OH236309   4.960   6.538   5.962  0.3200  0.2278  0.2415
 3129TIP3    H136310   5.054   6.539   5.946  0.3592 -0.7103  0.3380
 3129TIP3    H236311   4.947   6.464   6.021 -0.1107  2.1327  2.7074
 3130TIP3   OH236312   5.813   6.493   7.029  0.1074 -0.6325  0.0994
 3130TIP3    H136313   5.856   6.426   0.012  1.8233 -1.7006 -2.4376
 3130TIP3    H236314   5.874   6.567   7.031  1.0421 -1.3093 -1.6639
 3131TIP3   OH236315   6.290   4.908   6.239 -0.3355 -0.0684 -0.8245
 3131TIP3    H136316   6.284   4.992   6.285  1.0385  0.1953 -1.0844
 3131TIP3    H236317   6.280   4.842   6.307 -0.4192  0.3111 -0.4678
 3132TIP3   OH236318   4.819   2.097   5.815  0.0371  0.1691  0.1880
 3132TIP3    H136319   4.884   2.152   5.771  0.2565  0.0043  0.3011
 3132TIP3    H236320   4.804   2.024   5.754  0.0608  0.1359  0.2215
 3133TIP3   OH236321   3.304   3.606   6.666 -0.1216 -0.8831  0.6331
 3133TIP3    H136322   3.336   3.598   6.756 -2.4028  0.7843  1.7054
 3133TIP3    H236323   3.383   3.600   6.612  1.5378 -0.3276  2.8294
 3134TIP3   OH236324   5.441   4.504   0.342 -0.7464  0.1136 -0.0035
 3134TIP3    H136325   5.453   4.536   0.431 -1.0011  0.2994 -0.0350
 3134TIP3    H236326   5.490   4.565   0.287 -0.1523 -0.3034  0.0549
 3135TIP3   OH236327   8.350   3.645   5.668  0.2565  0.1678  0.6672
 3135TIP3    H136328   8.261   3.638   5.703 -0.0009  1.3263  0.2840
 3135TIP3    H236329   8.341   3.618   5.576  0.4112 -0.2048  0.7565
 3136TIP3   OH236330   3.604   3.496   5.773 -1.1278  0.1017  0.2054
 3136TIP3    H136331   3.603   3.422   5.714  0.5966 -0.8679  1.3185
 3136TIP3    H236332   3.549   3.469   5.847 -1.4794  0.4352  0.0745
 3137TIP3   OH236333   6.793   3.766   4.656 -0.2689 -0.6372 -0.9355
 3137TIP3    H136334   6.732   3.799   4.591  0.2048  1.2513 -0.4716
 3137TIP3    H236335   6.741   3.706   4.710 -1.2133 -0.5004 -1.6811
 3138TIP3   OH236336   4.537   8.074   7.054  0.4375 -0.4796 -0.6221
 3138TIP3    H136337   4.457   8.100   0.029  0.3995 -0.1195 -0.8866
 3138TIP3    H236338   4.596   8.043   0.052  1.5064  2.7649  0.1260
 3139TIP3   OH236339   7.078   3.247   6.613  0.2186  0.2282 -0.5159
 3139TIP3    H136340   7.003   3.207   6.655 -0.7878 -0.9616 -3.2250
 3139TIP3    H236341   7.144   3.178   6.611  0.7494  0.6946  0.2154
 3140TIP3   OH236342   5.707   3.631   0.606 -0.7966 -0.0049 -0.0546
 3140TIP3    H136343   5.721   3.725   0.603 -2.2305  0.2660  0.5805
 3140TIP3    H236344   5.666   3.610   0.521  0.3203 -0.2213 -0.5525
 3141TIP3   OH236345   6.452   5.466   0.217 -0.0462  0.0281 -0.2483
 3141TIP3    H136346   6.426   5.535   0.278 -1.3913 -0.2043 -0.5151
 3141TIP3    H236347   6.371   5.446   0.168  0.2860 -1.7871 -0.1214
 3142TIP3   OH236348   5.011   2.932   7.002 -0.1353 -0.3812  0.3699
 3142TIP3    H136349   5.013   3.028   7.002  2.3090 -0.3560  1.2069
 3142TIP3    H236350   4.970   2.909   6.919 -0.6859  1.3688  0.1114
 3143TIP3   OH236351   8.329   0.694   1.869  0.0428  0.4109  0.2488
 3143TIP3    H136352   8.416   0.691   1.909 -0.2440 -1.1741  0.8310
 3143TIP3    H236353   8.298   0.782   1.885  0.7955  0.4391  1.6956
 3144TIP3   OH236354   8.358   2.818   0.535 -0.3596  0.5261  0.3635
 3144TIP3    H136355   8.365   2.750   0.468 -1.8376  0.1827  0.5203
 3144TIP3    H236356   8.347   2.899   0.485  0.4919  0.5520  0.1913
 3145TIP3   OH236357   8.249   0.982   1.503  0.4385 -0.0558  0.0465
 3145TIP3    H136358   8.305   0.905   1.512  1.5300  0.5996 -0.9716
 3145TIP3    H236359   8.301   1.045   1.454 -1.1120  0.6449 -0.8048
 3146TIP3   OH236360   3.818   1.952   6.185  0.7840 -0.0164 -0.0795
 3146TIP3    H136361   3.806   1.957   6.090 -0.2824 -1.1719 -0.0369
 3146TIP3    H236362   3.759   2.018   6.221 -0.2615 -0.8648 -0.1728
 3147TIP3   OH236363   1.625   1.844   6.426  0.1850  0.2516 -0.2915
 3147TIP3    H136364   1.567   1.770   6.445  2.5151 -1.9403 -1.1762
 3147TIP3    H236365   1.569   1.907   6.382 -1.3792 -2.1426 -1.9802
 3148TIP3   OH236366   6.751   2.579   0.551  0.2914  0.2772 -0.0706
 3148TIP3    H136367   6.805   2.576   0.472  1.7002  0.8443  0.8421
 3148TIP3    H236368   6.734   2.673   0.564 -3.5654  0.0667 -2.0207
 3149TIP3   OH236369   0.374   3.990   0.195 -0.1197  0.4530  0.2262
 3149TIP3    H136370   0.390   3.916   0.253  0.4416  0.5309  0.1735
 3149TIP3    H236371   0.298   3.964   0.143  0.4139 -0.3233 -0.1898
 3150TIP3   OH236372   4.021   0.405   1.167  0.2994 -0.2470  0.2782
 3150TIP3    H136373   3.989   0.344   1.234 -2.3618 -0.5743 -1.1638
 3150TIP3    H236374   4.021   0.490   1.212 -1.8889 -0.3777  0.6741
 3151TIP3   OH236375   3.703   3.615   0.830  0.0216  0.4147  0.8210
 3151TIP3    H136376   3.657   3.668   0.895 -0.2060  2.5099 -0.9113
 3151TIP3    H236377   3.784   3.589   0.873 -0.8703  0.2672  2.4930
 3152TIP3   OH236378   3.298   4.901   5.207  0.1014  0.1891 -0.0437
 3152TIP3    H136379   3.265   4.828   5.259 -1.2924  1.3315  0.7648
 3152TIP3    H236380   3.379   4.869   5.168 -0.5160 -1.7943  0.2170
 3153TIP3   OH236381   1.308   6.817   0.892  0.0909 -0.1905  0.2395
 3153TIP3    H136382   1.239   6.808   0.958  1.3010 -2.2608  1.3433
 3153TIP3    H236383   1.389   6.817   0.943  0.9946  0.1430 -1.1473
 3154TIP3   OH236384   6.503   6.828   5.398  0.7163  0.0058 -0.2996
 3154TIP3    H136385   6.482   6.771   5.324  0.6109  0.5772 -0.7150
 3154TIP3    H236386   6.482   6.916   5.368 -1.0436  0.1032  1.0112
 3155TIP3   OH236387   7.912   5.991   1.289 -0.0994 -0.4372  0.0660
 3155TIP3    H136388   7.991   5.955   1.248  0.8195  1.0176  0.5148
 3155TIP3    H236389   7.862   5.913   1.315 -0.3910 -1.4588 -3.0805
 3156TIP3   OH236390   0.986   1.581   0.475  0.1051  0.0591  0.3573
 3156TIP3    H136391   0.893   1.565   0.460  0.2217 -0.9281  0.6462
 3156TIP3    H236392   1.031   1.510   0.431  0.8379  1.3548 -1.0956
 3157TIP3   OH236393   2.614   2.677   6.079  0.1115  0.5615  0.1716
 3157TIP3    H136394   2.607   2.715   5.991  2.2179 -0.6018 -0.5853
 3157TIP3    H236395   2.529   2.634   6.093  0.3002 -0.7294 -2.0915
 3158TIP3   OH236396   7.045   5.853   6.494 -0.5830 -0.4201  0.6492
 3158TIP3    H136397   7.131   5.821   6.469 -1.2166 -2.5502  0.9499
 3158TIP3    H236398   7.058   5.889   6.582  0.1950  0.3143  0.2472
 3159TIP3   OH236399   5.853   5.951   1.627  0.2290 -0.5782 -0.1563
 3159TIP3    H136400   5.936   5.908   1.644  0.2061 -0.4712  0.2334
 3159TIP3    H236401   5.802   5.886   1.579  0.6334 -0.5464 -0.6430
 3160TIP3   OH236402   2.751   0.201   6.940  0.7881 -0.0567  0.5654
 3160TIP3    H136403   2.805   0.136   6.895  0.7658  0.3086 -0.0078
 3160TIP3    H236404   2.768   0.283   6.893  3.1936  1.0932  3.1351
 3161TIP3   OH236405   6.579   4.636   5.112  0.1048 -0.3484 -0.7886
 3161TIP3    H136406   6.537   4.685   5.041 -0.7897  0.5884  0.3475
 3161TIP3    H236407   6.564   4.690   5.190 -0.6425 -2.2667  0.4656
 3162TIP3   OH236408   1.699   2.632   1.107 -0.3044 -0.1322 -0.2574
 3162TIP3    H136409   1.676   2.692   1.178  3.7140  1.7795 -0.2370
 3162TIP3    H236410   1.736   2.556   1.152  0.5395  0.2785 -0.2254
 3163TIP3   OH236411   5.402   3.660   6.588  0.6205  0.6848  0.6157
 3163TIP3    H136412   5.490   3.689   6.611  0.9466  0.3463 -0.1762
 3163TIP3    H236413   5.410   3.629   6.497 -0.2451  0.3721  0.6402
 3164TIP3   OH236414   1.977   4.752   1.660  0.1987  0.4086 -0.3654
 3164TIP3    H136415   1.986   4.847   1.651 -3.0945  0.7921 -0.9897
 3164TIP3    H236416   1.934   4.741   1.745 -2.4731 -0.1364 -1.6804
 3165TIP3   OH236417   2.670   5.709   6.033 -0.0613  0.6484  0.3372
 3165TIP3    H136418   2.747   5.690   6.087 -1.2988  1.1480  2.3618
 3165TIP3    H236419   2.601   5.655   6.070 -1.1077  1.4585 -0.3764
 3166TIP3   OH236420   4.009   1.760   1.662  0.2581 -0.2734 -0.0265
 3166TIP3    H136421   3.917   1.744   1.683  0.4851 -1.7713 -0.1284
 3166TIP3    H236422   4.030   1.841   1.709 -0.9831 -0.1538  0.3526
 3167TIP3   OH236423   3.908   0.555   6.058 -0.2303 -0.3379 -0.4447
 3167TIP3    H136424   3.985   0.501   6.038 -0.9467 -1.3618 -0.5353
 3167TIP3    H236425   3.934   0.644   6.032  1.2113 -0.5014  0.3102
 3168TIP3   OH236426   2.033   0.103   5.386 -0.0936  0.0342 -0.3013
 3168TIP3    H136427   2.124   0.109   5.415 -0.2970  0.3820  0.2743
 3168TIP3    H236428   1.992   0.045   5.449 -0.6321  1.1118  0.3755
 3169TIP3   OH236429   4.676   8.051   6.814  0.2425 -0.3025 -0.0527
 3169TIP3    H136430   4.600   8.049   6.872  0.3487 -0.8705  0.0724
 3169TIP3    H236431   4.743   8.001   6.861  0.7745  0.4094 -0.0502
 3170TIP3   OH236432   2.321   2.112   0.694 -0.4247  0.3891 -0.1902
 3170TIP3    H136433   2.375   2.169   0.750  0.2286  0.1610 -0.5726
 3170TIP3    H236434   2.372   2.032   0.686 -1.7459 -0.6296  1.0727
 3171TIP3   OH236435   4.813   2.484   6.924 -0.4593 -0.2437  0.0400
 3171TIP3    H136436   4.787   2.496   7.015 -1.3598 -0.9099 -0.1224
 3171TIP3    H236437   4.907   2.468   6.928 -0.1981  1.2760  0.7124
 3172TIP3   OH236438   4.886   6.776   6.646  0.1324 -0.1647 -0.5994
 3172TIP3    H136439   4.848   6.688   6.646 -1.2652  0.4037  0.2982
 3172TIP3    H236440   4.811   6.835   6.640  0.9919  0.9880 -0.4311
 3173TIP3   OH236441   4.432   2.376   5.940  0.4238 -0.3151  0.4693
 3173TIP3    H136442   4.501   2.389   6.005  0.4645  0.5869  0.2697
 3173TIP3    H236443   4.416   2.464   5.906 -0.1766 -0.6590 -0.1476
 3174TIP3   OH236444   5.024   1.733   6.903  0.3512 -0.2809  0.5674
 3174TIP3    H136445   4.936   1.704   6.876  0.1753  1.4370 -0.8741
 3174TIP3    H236446   5.082   1.663   6.871 -0.2463 -0.1051 -1.0300
 3175TIP3   OH236447   7.172   1.514   6.564 -0.2154  0.6262  0.0034
 3175TIP3    H136448   7.156   1.474   6.479  0.6974 -3.1533  1.4271
 3175TIP3    H236449   7.258   1.557   6.554 -0.4173  0.7934 -1.1226
 3176TIP3   OH236450   6.629   6.109   0.665 -0.2448  0.4459 -0.2758
 3176TIP3    H136451   6.544   6.073   0.692  0.0450  1.0316  1.5515
 3176TIP3    H236452   6.682   6.032   0.643 -0.7889 -0.0089 -0.0098
 3177TIP3   OH236453   3.640   1.100   1.210 -0.3535 -0.1185 -0.1192
 3177TIP3    H136454   3.689   1.086   1.129 -0.9607  0.1504 -0.5342
 3177TIP3    H236455   3.685   1.173   1.253 -0.4502  0.1917 -0.5443
 3178TIP3   OH236456   5.907   8.012   1.812  0.4181  0.4061  0.9138
 3178TIP3    H136457   5.913   8.078   1.743  0.8078 -0.4341  0.1368
 3178TIP3    H236458   5.839   8.046   1.871  0.2064  1.2120  0.2247
 3179TIP3   OH236459   7.976   0.955   0.616  0.1831 -0.3436 -0.3142
 3179TIP3    H136460   7.984   1.031   0.559  0.8356 -0.1511  0.0192
 3179TIP3    H236461   7.901   0.973   0.672 -0.7838 -0.7604 -1.4374
 3180TIP3   OH236462   4.469   5.337   1.509 -0.3577 -0.2743 -0.3976
 3180TIP3    H136463   4.510   5.300   1.587 -0.6584 -0.3330 -0.2684
 3180TIP3    H236464   4.542   5.375   1.460 -0.2851  0.5625  0.3412
 3181TIP3   OH236465   7.920   5.680   6.920 -0.2547  0.6842 -0.4656
 3181TIP3    H136466   7.826   5.666   6.907 -0.1866 -0.8466  0.5312
 3181TIP3    H236467   7.926   5.729   7.002 -0.1222 -0.6677  0.3458
 3182TIP3   OH236468   3.964   4.314   0.652 -0.5139 -0.0732 -0.4324
 3182TIP3    H136469   3.900   4.284   0.717 -0.2460  0.3355  0.0292
 3182TIP3    H236470   4.041   4.259   0.667 -1.1242 -1.3783 -1.7670
 3183TIP3   OH236471   8.138   8.372   1.171 -0.1878  0.5370  0.4603
 3183TIP3    H136472   8.096   8.454   1.196  1.5391  1.4762  0.4724
 3183TIP3    H236473   8.160   8.385   1.078 -1.4567 -0.6308 -0.0250
 3184TIP3   OH236474   5.173   4.867   6.603  0.5363  0.3889 -0.1077
 3184TIP3    H136475   5.117   4.893   6.676  1.3544  0.7981  0.3899
 3184TIP3    H236476   5.222   4.791   6.635  2.7733  2.0554  0.7769
 3185TIP3   OH236477   4.020   1.228   7.017  0.0254  0.4665 -0.7772
 3185TIP3    H136478   3.994   1.263   0.031 -1.1299 -0.7058 -0.6207
 3185TIP3    H236479   4.099   1.177   7.035 -0.3402  0.0378 -0.3525
 3186TIP3   OH236480   7.774   5.157   1.884  0.0677 -0.1191 -0.1431
 3186TIP3    H136481   7.727   5.224   1.933  0.7602 -0.4318  0.9887
 3186TIP3    H236482   7.856   5.145   1.933  1.3407  0.4024 -2.0293
 3187TIP3   OH236483   0.220   8.171   1.411  0.5668 -0.0515 -0.4182
 3187TIP3    H136484   0.128   8.155   1.391  0.3200 -0.3950  0.8844
 3187TIP3    H236485   0.249   8.092   1.458  1.5318  0.0496 -0.8047
 3188TIP3   OH236486   2.511   4.610   5.173  0.3903 -0.3295 -0.6768
 3188TIP3    H136487   2.591   4.654   5.144  0.4436 -0.8402 -1.3229
 3188TIP3    H236488   2.477   4.666   5.243  0.0426  1.1598 -1.9919
 3189TIP3   OH236489   5.359   0.523   0.278  0.5901  0.2799  0.3358
 3189TIP3    H136490   5.440   0.519   0.228  0.3080 -1.8619 -0.0455
 3189TIP3    H236491   5.290   0.521   0.212  0.2230  0.1336  0.7222
 3190TIP3   OH236492   4.776   8.311   1.706 -0.2353 -0.1204 -0.6660
 3190TIP3    H136493   4.848   8.266   1.660 -0.5777 -0.3198 -1.0117
 3190TIP3    H236494   4.809   8.400   1.720 -0.0826 -0.0881 -1.2007
 3191TIP3   OH236495   1.148   2.932   6.222  0.4141  0.5735  0.5904
 3191TIP3    H136496   1.163   2.856   6.279 -0.3080  0.1915  0.2779
 3191TIP3    H236497   1.144   2.895   6.134 -0.4475  0.9037  0.4836
 3192TIP3   OH236498   7.391   7.839   1.021  0.3268 -0.1000 -0.1913
 3192TIP3    H136499   7.388   7.747   0.995 -0.6720 -0.0631 -0.2692
 3192TIP3    H236500   7.373   7.887   0.940  1.6330  0.2158 -0.3206
 3193TIP3   OH236501   4.796   8.403   4.808  0.1941 -0.1181 -0.0772
 3193TIP3    H136502   4.745   8.472   4.766 -0.6590 -0.5192  0.2809
 3193TIP3    H236503   4.887   8.429   4.793 -0.0596  1.9920  1.5094
 3194TIP3   OH236504   7.330   5.281   2.668 -0.6752 -0.6308  0.2729
 3194TIP3    H136505   7.405   5.279   2.728  0.0333  0.7095 -0.4960
 3194TIP3    H236506   7.360   5.231   2.592 -0.9039 -0.8409  0.3203
 3195TIP3   OH236507   4.847   8.309   0.593 -0.5969 -0.1638  0.1960
 3195TIP3    H136508   4.888   8.377   0.540 -1.3405  0.1759  0.0425
 3195TIP3    H236509   4.912   8.240   0.598 -0.4983 -0.1896 -1.1340
 3196TIP3   OH236510   0.620   1.808   5.833 -0.4870 -0.0903  0.4393
 3196TIP3    H136511   0.689   1.874   5.845  0.1887 -0.4614 -1.1515
 3196TIP3    H236512   0.543   1.859   5.808  0.4928  0.1048 -2.6672
 3197TIP3   OH236513   7.988   2.431   1.331 -0.4603  0.3033 -0.4501
 3197TIP3    H136514   7.961   2.519   1.304 -0.6878 -0.0912 -1.5283
 3197TIP3    H236515   8.083   2.433   1.327 -0.5004  0.0060 -2.1326
 3198TIP3   OH236516   4.110   1.988   5.853  0.0743 -0.2753 -0.1215
 3198TIP3    H136517   4.134   1.915   5.796 -2.5801 -0.6030 -0.9784
 3198TIP3    H236518   4.175   2.055   5.835  1.2016 -1.5765 -1.1017
 3199TIP3   OH236519   2.784   8.238   0.798  0.1619 -0.2924 -0.2833
 3199TIP3    H136520   2.772   8.275   0.711 -1.4530 -1.4658 -0.5973
 3199TIP3    H236521   2.695   8.229   0.833  0.4635 -3.4230 -0.0873
 3200TIP3   OH236522   7.056   7.665   0.840 -0.3232 -0.1592  0.2757
 3200TIP3    H136523   7.127   7.606   0.814  1.1142  0.8482  1.7808
 3200TIP3    H236524   6.988   7.606   0.874 -0.4596 -1.1655 -1.6149
 3201TIP3   OH236525   1.058   0.835   1.180 -0.4208 -0.6087  0.2073
 3201TIP3    H136526   1.143   0.794   1.169  0.9642  2.1836 -0.4689
 3201TIP3    H236527   1.063   0.877   1.266 -1.7781 -1.7126  0.8747
 3202TIP3   OH236528   0.901   8.492   6.953 -0.2602 -0.1791  0.0570
 3202TIP3    H136529   0.805   8.498   6.961 -0.3879 -1.6721 -0.0176
 3202TIP3    H236530   0.925   8.423   7.014  0.4908 -1.4587 -1.6146
 3203TIP3   OH236531   6.376   5.648   0.405  0.2544 -0.0258  0.6270
 3203TIP3    H136532   6.382   5.737   0.439 -2.2224  0.8527 -0.8954
 3203TIP3    H236533   6.292   5.616   0.438 -0.2624 -0.6574 -1.1643
 3204TIP3   OH236534   0.449   2.417   6.890 -0.3937  0.0004  0.2869
 3204TIP3    H136535   0.520   2.442   6.949 -1.3541 -0.3836  1.6373
 3204TIP3    H236536   0.403   2.347   6.935 -0.7226 -0.8281 -1.2625
 3205TIP3   OH236537   4.958   7.838   0.343 -0.4829  0.1574  0.4012
 3205TIP3    H136538   4.869   7.859   0.369 -0.9121 -0.5700 -0.4682
 3205TIP3    H236539   4.984   7.766   0.400 -0.9028 -0.4556 -0.1637
 3206TIP3   OH236540   0.607   3.288   6.393  0.3033  0.2321 -0.0115
 3206TIP3    H136541   0.607   3.329   6.480 -0.8064 -0.5282  0.3685
 3206TIP3    H236542   0.590   3.360   6.333  1.4155  0.8240  0.3573
 3207TIP3   OH236543   4.610   7.735   6.892 -0.3825  0.0346 -0.0779
 3207TIP3    H136544   4.682   7.794   6.917 -0.8038  0.0919  1.0978
 3207TIP3    H236545   4.654   7.655   6.862  0.1831  0.6431 -0.9159
 3208TIP3   OH236546   7.509   1.853   5.076 -0.1723  0.0396  0.3763
 3208TIP3    H136547   7.505   1.789   5.004  0.1582 -0.0568  0.4439
 3208TIP3    H236548   7.436   1.913   5.058 -0.5486 -0.4117  0.3636
 3209TIP3   OH236549   2.907   3.930   0.980 -0.1159 -0.1454  0.3984
 3209TIP3    H136550   2.959   3.992   1.030  1.0998 -0.5845 -0.2754
 3209TIP3    H236551   2.831   3.911   1.035  0.4781  0.4573  1.4357
 3210TIP3   OH236552   1.271   4.612   0.758  0.4665  0.1970  0.8808
 3210TIP3    H136553   1.240   4.702   0.772 -0.1897 -0.1951  2.1130
 3210TIP3    H236554   1.265   4.599   0.664 -0.7547  0.9861  0.8277
 3211TIP3   OH236555   6.612   3.599   5.100 -0.3075  0.3594 -0.0327
 3211TIP3    H136556   6.525   3.631   5.079 -0.8225 -0.2024  1.1275
 3211TIP3    H236557   6.625   3.523   5.043 -1.4251 -0.7713  1.1369
 3212TIP3   OH236558   3.452   2.395   5.910  0.3516 -0.4878  0.7194
 3212TIP3    H136559   3.390   2.322   5.906 -1.5167  1.0283  1.0861
 3212TIP3    H236560   3.488   2.391   5.998  0.6129 -1.2092  0.5923
 3213TIP3   OH236561   0.908   3.307   1.334 -0.3808  0.9283 -0.4612
 3213TIP3    H136562   0.970   3.331   1.403  0.7614  0.1073 -1.1618
 3213TIP3    H236563   0.915   3.378   1.270 -0.6049  1.1345 -0.2559
 3214TIP3   OH236564   1.441   5.844   0.036 -0.0131 -0.3181 -0.0398
 3214TIP3    H136565   1.486   5.927   0.050  0.3113 -0.3462 -0.8435
 3214TIP3    H236566   1.501   5.793   7.052 -1.5287  0.1387 -2.2616
 3215TIP3   OH236567   2.358   5.685   0.688 -0.3314 -0.1937 -0.4199
 3215TIP3    H136568   2.355   5.777   0.713 -1.2332 -0.3717  0.1602
 3215TIP3    H236569   2.417   5.682   0.613 -1.1783  1.0129 -1.1521
 3216TIP3   OH236570   3.284   5.381   0.006 -0.1387  0.4149 -0.7544
 3216TIP3    H136571   3.346   5.309   7.064 -0.9125 -1.0575  2.5409
 3216TIP3    H236572   3.199   5.343   7.052 -0.1811  1.2903 -2.0140
 3217TIP3   OH236573   5.637   2.569   1.107  0.1058  0.0144  0.3440
 3217TIP3    H136574   5.553   2.607   1.135  0.9760  1.2149  1.4614
 3217TIP3    H236575   5.614   2.483   1.073 -1.5944  0.3538  0.5186
 3218TIP3   OH236576   2.370   4.763   0.276 -0.4139  0.0731  0.1006
 3218TIP3    H136577   2.404   4.806   0.354 -2.3722 -0.0184  1.0749
 3218TIP3    H236578   2.317   4.830   0.233 -1.4262 -0.5899  0.2697
 3219TIP3   OH236579   2.817   0.047   0.909  0.2312 -0.4990  0.1010
 3219TIP3    H136580   2.764   0.035   0.831 -0.4704  2.4215  0.0155
 3219TIP3    H236581   2.883   0.112   0.884 -0.2548  0.8078  1.9886
 3220TIP3   OH236582   5.772   7.540   0.263  0.3913 -0.1928  0.0632
 3220TIP3    H136583   5.777   7.604   0.334  0.8718 -1.0091  0.7976
 3220TIP3    H236584   5.751   7.591   0.185  0.4638  0.8081  0.6833
 3221TIP3   OH236585   7.255   7.112   6.666  0.1957  0.0395  0.0129
 3221TIP3    H136586   7.172   7.088   6.707 -0.1333 -0.2369 -0.7938
 3221TIP3    H236587   7.314   7.040   6.688 -0.1316 -0.3736 -0.4469
 3222TIP3   OH236588   6.132   6.505   0.990 -0.0081 -0.2430 -0.2600
 3222TIP3    H136589   6.205   6.567   0.988  1.0978 -1.4159  1.5375
 3222TIP3    H236590   6.059   6.557   1.024  0.8825  0.1482  1.1502
 3223TIP3   OH236591   3.400   6.598   6.533  0.1267 -0.2615 -0.1806
 3223TIP3    H136592   3.432   6.535   6.469 -1.3563 -1.3897  0.1300
 3223TIP3    H236593   3.353   6.545   6.597  0.2895  1.0023  1.0241
 3224TIP3   OH236594   4.939   4.562   0.699 -0.4305  0.7421  0.5071
 3224TIP3    H136595   5.005   4.499   0.671  0.3598  1.3995  0.8407
 3224TIP3    H236596   4.905   4.525   0.781  1.7941  1.8983  2.0568
 3225TIP3   OH236597   1.966   4.519   0.543 -0.3679  0.1336  0.1719
 3225TIP3    H136598   1.875   4.506   0.567  0.1244 -0.8453  1.6937
 3225TIP3    H236599   2.006   4.558   0.621  1.2198 -2.7291  0.9468
 3226TIP3   OH236600   5.684   4.477   5.635  0.0977  0.1579 -0.0264
 3226TIP3    H136601   5.758   4.513   5.684  0.4206  0.0946 -0.4604
 3226TIP3    H236602   5.663   4.544   5.570  1.5511 -0.9152 -1.7216
 3227TIP3   OH236603   6.742   6.880   5.810 -0.5242  0.1611  0.0824
 3227TIP3    H136604   6.740   6.818   5.738 -0.3840  0.6766 -0.3734
 3227TIP3    H236605   6.744   6.966   5.768 -0.3367  0.4667  0.6971
 3228TIP3   OH236606   7.971   6.937   6.799 -0.2792  0.2132 -0.4936
 3228TIP3    H136607   7.878   6.934   6.779 -0.4021 -0.0322  0.1027
 3228TIP3    H236608   8.013   6.958   6.715 -0.9950  2.1116 -0.4173
 3229TIP3   OH236609   0.833   6.416   5.679 -0.0313 -0.2351  0.0078
 3229TIP3    H136610   0.795   6.436   5.764  0.9664 -0.0077  0.4113
 3229TIP3    H236611   0.858   6.323   5.684  2.5667  0.4323  1.0087
 3230TIP3   OH236612   4.202   8.165   7.048 -0.8479  0.4272 -0.2350
 3230TIP3    H136613   4.188   8.088   6.992 -1.2434  0.3114  0.0209
 3230TIP3    H236614   4.281   8.205   7.013  0.2234 -0.9199  0.5351
 3231TIP3   OH236615   6.614   6.900   4.919 -0.2786  0.7464 -0.7863
 3231TIP3    H136616   6.592   6.807   4.910 -0.1950  0.6260  0.1338
 3231TIP3    H236617   6.707   6.905   4.899 -0.1300  0.5162 -0.1717
 3232TIP3   OH236618   4.258   6.284   0.254 -0.1350 -0.8126 -0.8787
 3232TIP3    H136619   4.186   6.249   0.306  1.1940 -3.1115 -0.4557
 3232TIP3    H236620   4.275   6.217   0.188  2.0632 -0.6893 -0.5078
 3233TIP3   OH236621   7.055   4.487   1.677  0.1022  0.4328  0.2077
 3233TIP3    H136622   7.017   4.400   1.663 -2.4707  1.4862  0.0948
 3233TIP3    H236623   7.094   4.510   1.593 -1.2187  0.2745 -0.4736
 3234TIP3   OH236624   5.356   5.062   6.672 -0.3162  0.2016 -0.4286
 3234TIP3    H136625   5.316   4.983   6.637 -0.7218  0.9060 -1.6136
 3234TIP3    H236626   5.421   5.088   6.606  0.4641  0.3531  0.3813
 3235TIP3   OH236627   7.011   8.361   5.281 -0.3063  0.4002  0.5235
 3235TIP3    H136628   7.080   8.408   5.234 -0.4689  2.0620  1.8333
 3235TIP3    H236629   6.931   8.382   5.233 -0.2462  0.7073  0.5531
 3236TIP3   OH236630   5.727   6.843   6.374  0.2341  0.6593  0.0659
 3236TIP3    H136631   5.632   6.835   6.378  0.1342  0.8997 -1.4435
 3236TIP3    H236632   5.758   6.756   6.348  0.3561  0.8108 -0.3018
 3237TIP3   OH236633   7.578   1.389   6.371  0.0911  0.5070  0.2083
 3237TIP3    H136634   7.556   1.467   6.422  0.4398 -0.4676  1.9410
 3237TIP3    H236635   7.610   1.326   6.436  0.6494 -0.7831 -1.2480
 3238TIP3   OH236636   7.260   4.384   6.537 -0.0211 -0.2736  0.3614
 3238TIP3    H136637   7.284   4.476   6.532 -0.2352 -0.1674  1.0989
 3238TIP3    H236638   7.289   4.356   6.624  0.4689 -1.0325 -0.0335
 3239TIP3   OH236639   2.662   4.802   6.680 -0.3157  0.0938 -0.9337
 3239TIP3    H136640   2.745   4.825   6.637  0.1404  1.5288  0.6155
 3239TIP3    H236641   2.597   4.859   6.638 -0.0746  0.6778 -0.5273
 3240TIP3   OH236642   8.152   1.545   6.077  0.2832  0.2167 -0.2791
 3240TIP3    H136643   8.131   1.616   6.015 -0.9097  1.0189  0.9715
 3240TIP3    H236644   8.247   1.546   6.083  0.3366  1.1328 -0.9656
 3241TIP3   OH236645   5.516   7.699   5.987 -0.4211  0.0156 -0.4928
 3241TIP3    H136646   5.468   7.782   5.988  1.3176  1.0961 -0.5933
 3241TIP3    H236647   5.451   7.633   6.008 -1.9404  1.3714 -0.7153
 3242TIP3   OH236648   1.152   3.130   0.394  0.3753  0.5823 -0.6197
 3242TIP3    H136649   1.209   3.091   0.460 -0.4638  0.1619 -0.1267
 3242TIP3    H236650   1.154   3.067   0.321 -0.2199  0.0846 -0.2110
 3243TIP3   OH236651   0.011   2.748   6.147  0.0027 -0.0465  0.6230
 3243TIP3    H136652   0.003   2.815   6.079 -0.9782  0.0956  0.8602
 3243TIP3    H236653   0.074   2.785   6.209  0.9680 -0.2132 -0.2300
 3244TIP3   OH236654   1.188   6.529   6.615 -0.4155  0.8854 -0.0929
 3244TIP3    H136655   1.259   6.589   6.638  1.0024 -1.4483  2.1752
 3244TIP3    H236656   1.207   6.503   6.525  0.5248  1.7294 -0.1586
 3245TIP3   OH236657   0.107   2.552   6.414  0.2627 -0.3231  0.3883
 3245TIP3    H136658   0.160   2.488   6.463 -0.3766 -1.9571 -0.9601
 3245TIP3    H236659   0.165   2.627   6.402  1.6777 -1.3677  0.4494
 3246TIP3   OH236660   6.468   6.044   5.990 -0.3652 -0.1870 -0.2925
 3246TIP3    H136661   6.485   6.011   6.078 -2.9258 -0.6158  0.1107
 3246TIP3    H236662   6.507   6.131   5.989  0.7622 -0.6455  0.8305
 3247TIP3   OH236663   2.072   0.162   0.833 -0.1645  0.2075  0.0247
 3247TIP3    H136664   2.040   0.186   0.920 -0.9976 -0.5543 -0.0617
 3247TIP3    H236665   2.097   0.245   0.793 -3.0934  1.0105 -0.3141
 3248TIP3   OH236666   4.031   1.494   5.949 -0.3777  0.0355  0.3904
 3248TIP3    H136667   4.033   1.543   5.866 -0.1655 -0.1144  0.3049
 3248TIP3    H236668   3.980   1.549   6.008 -0.8297 -0.0207  0.0571
 3249TIP3   OH236669   6.496   5.571   1.323  0.0070 -0.4744  0.2822
 3249TIP3    H136670   6.515   5.601   1.412  0.4159  0.1619 -0.0101
 3249TIP3    H236671   6.400   5.567   1.319 -0.0252 -0.1192  0.6269
 3250TIP3   OH236672   2.356   0.459   0.595  0.5584 -0.8054  0.2213
 3250TIP3    H136673   2.270   0.499   0.612  0.4775 -0.9185  0.0798
 3250TIP3    H236674   2.377   0.415   0.677  1.2815  0.6640  0.8658
 3251TIP3   OH236675   2.919   4.142   0.366  0.4820 -0.4508  0.3879
 3251TIP3    H136676   2.966   4.061   0.349 -0.3971 -0.7672 -0.6370
 3251TIP3    H236677   2.987   4.209   0.373  1.1619 -1.1451  0.4469
 3252TIP3   OH236678   7.840   1.096   0.811 -0.0693 -0.2763  0.0873
 3252TIP3    H136679   7.763   1.091   0.868 -0.5929  2.2429 -0.3139
 3252TIP3    H236680   7.810   1.139   0.732  1.2417 -1.4227 -1.0842
 3253TIP3   OH236681   2.122   6.795   1.505 -0.2259  0.4644 -0.2315
 3253TIP3    H136682   2.126   6.789   1.600  0.7634 -0.7942 -0.3293
 3253TIP3    H236683   2.112   6.889   1.488 -1.7481  0.5819  1.1232
 3254TIP3   OH236684   1.988   7.351   1.924  0.1061 -0.0817  0.4168
 3254TIP3    H136685   1.945   7.267   1.908  1.2236 -0.7149  0.6616
 3254TIP3    H236686   1.934   7.415   1.877  0.5468 -1.2413 -1.7961
 3255TIP3   OH236687   3.480   3.119   0.380 -0.1794  0.1599 -0.5066
 3255TIP3    H136688   3.438   3.196   0.418  0.3014  0.1597  0.0339
 3255TIP3    H236689   3.487   3.139   0.287 -1.3158  0.1866 -0.6078
 3256TIP3   OH236690   0.578   3.205   1.760 -0.0248 -0.2325  0.1355
 3256TIP3    H136691   0.665   3.223   1.797 -0.2105 -2.9686  2.2209
 3256TIP3    H236692   0.519   3.261   1.810  0.2926 -0.0958  0.3623
 3257TIP3   OH236693   1.881   8.493   5.548  0.5654 -0.2095  0.0579
 3257TIP3    H136694   1.872   0.035   5.604 -0.0932  0.1961 -0.5904
 3257TIP3    H236695   1.885   8.419   5.609  0.1279  0.2500  0.6485
 3258TIP3   OH236696   7.052   3.878   7.033  0.0505 -0.4259 -0.1371
 3258TIP3    H136697   7.081   3.940   6.966 -0.4466 -1.6550 -1.5498
 3258TIP3    H236698   7.120   3.882   0.029  0.8914  0.3899 -1.0014
 3259TIP3   OH236699   0.233   6.005   6.299 -0.2415  0.4018 -0.1547
 3259TIP3    H136700   0.234   6.073   6.231 -0.2048  1.4183  0.8239
 3259TIP3    H236701   0.203   6.051   6.378 -2.6998 -1.2661 -0.0008
 3260TIP3   OH236702   7.008   1.091   0.333  0.6526  0.3024  0.1826
 3260TIP3    H136703   6.978   1.019   0.277 -0.9830  0.5304  0.7226
 3260TIP3    H236704   7.089   1.058   0.373  0.0579 -1.1435  0.2427
 3261TIP3   OH236705   5.824   2.877   5.585 -0.1447 -0.3557 -0.0733
 3261TIP3    H136706   5.806   2.826   5.664 -0.4085  0.2119  0.2347
 3261TIP3    H236707   5.817   2.968   5.613  1.5102 -0.1160 -0.3229
 3262TIP3   OH236708   0.124   7.011   0.429 -0.1080 -0.4404 -0.7365
 3262TIP3    H136709   0.185   7.061   0.374  2.4075  0.6252  2.6897
 3262TIP3    H236710   0.077   7.078   0.479 -0.5208 -1.3919  0.1892
 3263TIP3   OH236711   2.485   7.171   6.028 -0.3809 -0.1716 -0.4990
 3263TIP3    H136712   2.444   7.199   5.947 -1.9537 -1.1334 -0.0768
 3263TIP3    H236713   2.416   7.122   6.075  0.4835  0.3122  1.3840
 3264TIP3   OH236714   8.307   2.242   6.321  0.2169 -0.2967  0.2452
 3264TIP3    H136715   8.281   2.312   6.380  0.6651 -0.8806  1.1588
 3264TIP3    H236716   8.401   2.254   6.308  0.2801 -0.6721  0.3396
 3265TIP3   OH236717   2.873   7.164   5.557 -0.6086 -0.5948 -0.2158
 3265TIP3    H136718   2.862   7.204   5.471 -1.4863 -0.5155 -0.0812
 3265TIP3    H236719   2.839   7.075   5.547  1.7684 -1.5054 -0.6358
 3266TIP3   OH236720   4.939   0.793   5.962 -0.3637 -0.4389 -0.3175
 3266TIP3    H136721   4.990   0.853   5.908 -0.2085 -0.0869  0.2077
 3266TIP3    H236722   4.932   0.714   5.909 -0.7583  0.1122 -1.1075
 3267TIP3   OH236723   4.643   5.873   0.959 -0.1580 -0.0663 -0.1437
 3267TIP3    H136724   4.586   5.934   1.005  0.0044  0.6174 -0.8169
 3267TIP3    H236725   4.665   5.806   1.024 -2.4922 -0.9135 -0.1149
 3268TIP3   OH236726   6.577   2.379   0.126  0.1957 -0.4346 -0.3012
 3268TIP3    H136727   6.519   2.318   0.171 -0.2440  0.6857  0.7316
 3268TIP3    H236728   6.558   2.464   0.167  1.0546  0.3255 -1.4168
 3269TIP3   OH236729   7.172   5.180   6.148 -0.0278 -0.5266  0.5491
 3269TIP3    H136730   7.208   5.104   6.103 -1.2010 -0.6107 -0.2850
 3269TIP3    H236731   7.077   5.168   6.144 -0.2877  1.4501 -0.4524
 3270TIP3   OH236732   7.497   3.759   6.377  0.6009  0.4243  0.5047
 3270TIP3    H136733   7.539   3.787   6.296 -0.1309  0.0648 -0.0073
 3270TIP3    H236734   7.565   3.767   6.444  0.9857  1.4958  0.0096
 3271TIP3   OH236735   6.081   0.164   6.803  0.1444  0.1256 -0.5741
 3271TIP3    H136736   6.148   0.232   6.805  1.4025 -1.0039 -2.0792
 3271TIP3    H236737   6.011   0.200   6.749  0.6051  0.4078 -0.9855
 3272TIP3   OH236738   5.612   8.501   1.807  0.8197  0.6109 -0.1339
 3272TIP3    H136739   5.634   0.020   1.731  0.6451  0.5360 -0.2391
 3272TIP3    H236740   5.567   0.025   1.867 -1.7556  0.0384 -1.3530
 3273TIP3   OH236741   2.638   2.545   0.813 -0.1966  0.0637  0.7997
 3273TIP3    H136742   2.667   2.454   0.823 -2.2837 -0.9698 -1.3446
 3273TIP3    H236743   2.693   2.595   0.873  2.6241 -2.2800  0.3863
 3274TIP3   OH236744   4.249   5.817   6.354  0.9843  0.2048  0.5517
 3274TIP3    H136745   4.284   5.742   6.401 -1.5561 -1.0362  0.6306
 3274TIP3    H236746   4.304   5.825   6.276  1.1678 -1.9367  0.4135
 3275TIP3   OH236747   5.782   0.147   6.755 -0.0888 -0.2463  0.1191
 3275TIP3    H136748   5.755   0.202   6.681  0.7503 -0.3718 -0.2985
 3275TIP3    H236749   5.718   0.076   6.758 -0.4488  0.0657 -0.1370
 3276TIP3   OH236750   3.822   7.292   1.759  0.3392  0.1404  0.4273
 3276TIP3    H136751   3.768   7.355   1.806 -2.4955 -1.1874 -0.8422
 3276TIP3    H236752   3.787   7.290   1.671  3.2642 -0.0093 -0.8632
 3277TIP3   OH236753   2.767   6.267   1.419  0.1304  0.1049 -0.2982
 3277TIP3    H136754   2.846   6.271   1.473  0.2287  0.8180 -0.4804
 3277TIP3    H236755   2.696   6.285   1.481  0.2476  0.9729 -0.4073
 3278TIP3   OH236756   2.841   0.305   0.290 -0.0510  0.2789 -0.7022
 3278TIP3    H136757   2.896   0.379   0.316 -2.0676  1.7107 -0.3153
 3278TIP3    H236758   2.899   0.229   0.296  1.9009  1.7202 -0.4410
 3279TIP3   OH236759   3.940   7.229   5.624  0.2567  0.3515 -0.0713
 3279TIP3    H136760   3.894   7.169   5.566  0.7578 -0.7542  0.6542
 3279TIP3    H236761   4.006   7.176   5.668 -0.4641  0.9974  1.9507
 3280TIP3   OH236762   0.742   3.065   5.509 -0.5086  0.0664 -0.7657
 3280TIP3    H136763   0.693   3.112   5.442 -1.7284  0.5111  0.3745
 3280TIP3    H236764   0.692   2.985   5.524 -0.2952  0.0041 -0.3515
 3281TIP3   OH236765   4.837   1.279   6.349  0.5481 -0.0549  0.2252
 3281TIP3    H136766   4.744   1.270   6.369  0.5808 -0.7262  0.0971
 3281TIP3    H236767   4.842   1.270   6.254  0.8329 -0.9277  0.3104
 3282TIP3   OH236768   4.450   6.899   2.134  0.6794 -0.3412 -0.0080
 3282TIP3    H136769   4.426   6.897   2.226 -0.8473 -1.3771 -0.3971
 3282TIP3    H236770   4.371   6.925   2.088 -0.0892 -4.3357 -1.3700
 3283TIP3   OH236771   7.302   4.583   0.675 -0.3575  0.1997  0.6540
 3283TIP3    H136772   7.321   4.620   0.761  2.0461 -1.4642  0.9350
 3283TIP3    H236773   7.244   4.508   0.693  0.6295 -0.5161  0.9333
 3284TIP3   OH236774   2.071   4.134   5.886 -0.1157  0.2447  0.2428
 3284TIP3    H136775   2.054   4.209   5.943  1.2523  0.4011  0.4743
 3284TIP3    H236776   2.146   4.090   5.926 -0.5017 -0.8858 -0.2472
 3285TIP3   OH236777   6.558   8.031   6.988  0.7408  0.1635  0.9836
 3285TIP3    H136778   6.478   7.983   6.968  0.1965  0.9333  1.3242
 3285TIP3    H236779   6.615   8.014   6.912 -0.4121  1.1007 -0.1291
 3286TIP3   OH236780   4.390   7.960   0.984 -0.1802  0.7836 -0.3791
 3286TIP3    H136781   4.403   7.966   1.079  0.0821  0.4327 -0.3904
 3286TIP3    H236782   4.470   7.996   0.946  1.2839 -2.2376 -0.4447
 3287TIP3   OH236783   7.617   1.923   2.126  0.3968  0.3326 -0.2503
 3287TIP3    H136784   7.634   1.885   2.039  0.0161  0.0166 -0.1887
 3287TIP3    H236785   7.524   1.908   2.141  0.2392  1.3044 -0.2241
 3288TIP3   OH236786   3.969   5.076   2.022 -0.0266  0.4922  0.2496
 3288TIP3    H136787   3.980   5.046   1.932 -0.7397 -1.0776  0.6456
 3288TIP3    H236788   3.877   5.103   2.027 -0.4225 -0.8449  0.8517
 3289TIP3   OH236789   4.694   6.969   6.491 -0.0339  0.7104 -0.5249
 3289TIP3    H136790   4.637   6.928   6.426 -0.7988  1.1253 -0.1224
 3289TIP3    H236791   4.670   7.062   6.489  0.4230  0.8423 -0.1447
 3290TIP3   OH236792   0.386   3.116   0.059  0.0529  0.5352  0.1011
 3290TIP3    H136793   0.450   3.074   0.002 -0.1480  0.3139  0.0388
 3290TIP3    H236794   0.303   3.077   0.035 -0.3597  1.9618 -0.9447
 3291TIP3   OH236795   7.646   7.496   5.760  0.3106  0.9679  0.2686
 3291TIP3    H136796   7.586   7.562   5.728  0.9388  1.4878  0.1395
 3291TIP3    H236797   7.644   7.428   5.692  0.7747  1.5409 -0.3371
 3292TIP3   OH236798   7.856   7.877   1.084 -0.0173  0.5745  0.1775
 3292TIP3    H136799   7.881   7.843   1.170 -0.4114 -2.1540 -0.7110
 3292TIP3    H236800   7.765   7.905   1.095 -0.4005 -0.7052  0.4421
 3293TIP3   OH236801   4.736   5.077   6.883 -0.5122 -0.0860  0.0309
 3293TIP3    H136802   4.816   5.079   6.830 -0.1370 -1.6634  0.4852
 3293TIP3    H236803   4.682   5.148   6.848  0.0713 -0.5362 -1.9309
 3294TIP3   OH236804   3.804   1.601   5.757 -0.3359  0.5352  0.2753
 3294TIP3    H136805   3.832   1.647   5.836 -0.0615  1.5445 -0.3985
 3294TIP3    H236806   3.862   1.633   5.688  0.7390 -1.7586 -0.0088
 3295TIP3   OH236807   1.106   1.944   1.107 -0.0766 -0.1623  0.5521
 3295TIP3    H136808   1.015   1.966   1.085  0.2552  1.2958  0.5741
 3295TIP3    H236809   1.153   2.027   1.102  2.1700 -1.4223 -3.6118
 3296TIP3   OH236810   6.537   3.883   0.764  0.0687 -0.3765  0.3049
 3296TIP3    H136811   6.498   3.795   0.757 -0.7230  0.0213 -0.4329
 3296TIP3    H236812   6.592   3.878   0.842 -1.6663 -0.8841  1.5553
 3297TIP3   OH236813   1.872   3.974   0.138 -0.7857  0.5245 -0.1406
 3297TIP3    H136814   1.851   3.905   0.200 -0.6900 -0.0242 -0.7059
 3297TIP3    H236815   1.885   4.052   0.192  1.5472 -0.4017  0.7900
 3298TIP3   OH236816   7.592   5.837   1.704 -0.7995 -0.2598  0.7573
 3298TIP3    H136817   7.586   5.754   1.656  2.4981 -1.2979  1.8423
 3298TIP3    H236818   7.621   5.901   1.639  0.5311 -0.9313  0.6470
 3299TIP3   OH236819   4.789   5.360   5.621  0.1210  0.6131 -0.5813
 3299TIP3    H136820   4.735   5.282   5.634 -1.9765  2.1157  0.4811
 3299TIP3    H236821   4.751   5.403   5.544  0.7303  0.9666 -0.6919
 3300TIP3   OH236822   0.095   0.518   6.944  0.4089  0.4500  0.4527
 3300TIP3    H136823   0.097   0.485   7.034 -2.5579 -1.6810 -0.1287
 3300TIP3    H236824   0.044   0.599   6.950  0.7219  0.6293  0.7516
 3301TIP3   OH236825   2.106   3.827   0.234  0.1184 -0.1326 -0.4446
 3301TIP3    H136826   2.088   3.832   0.328 -2.6235 -0.6208 -0.8399
 3301TIP3    H236827   2.054   3.752   0.204  0.3953  0.4236 -2.4505
 3302TIP3   OH236828   7.831   3.802   0.120  0.1891  0.3540  0.2150
 3302TIP3    H136829   7.848   3.726   0.063 -0.4870 -0.7086  1.3649
 3302TIP3    H236830   7.895   3.793   0.190 -1.3986 -0.5284  1.6187
 3303TIP3   OH236831   2.837   8.465   1.183 -0.4619 -0.1754  0.6955
 3303TIP3    H136832   2.817   8.498   1.096 -1.4102 -0.1593  0.9074
 3303TIP3    H236833   2.867   0.007   1.231  0.0678 -0.1864  0.3885
 3304TIP3   OH236834   7.616   4.916   0.499 -0.1961 -0.2843 -0.0810
 3304TIP3    H136835   7.677   4.978   0.538 -2.1340  1.4137  0.4318
 3304TIP3    H236836   7.550   4.970   0.456 -2.0794 -1.9485  0.5245
 3305TIP3   OH236837   2.619   4.767   0.163 -0.1499  0.0646  0.2169
 3305TIP3    H136838   2.670   4.693   0.196  0.0574  0.2879  0.4045
 3305TIP3    H236839   2.533   4.756   0.202  0.6188  1.4231  2.5693
 3306TIP3   OH236840   3.201   2.197   6.830 -0.2989 -0.3971 -0.2460
 3306TIP3    H136841   3.143   2.179   6.755 -0.1448 -1.5969 -0.0939
 3306TIP3    H236842   3.186   2.123   6.890 -0.8557  0.8364  1.1882
 3307TIP3   OH236843   4.337   6.209   6.036 -0.0600  0.2991 -0.4979
 3307TIP3    H136844   4.363   6.176   6.123  0.4042  2.5205  0.2821
 3307TIP3    H236845   4.258   6.259   6.053 -0.0892  0.5675 -1.4053
 3308TIP3   OH236846   1.235   4.917   0.257 -0.3207 -0.0781  0.5229
 3308TIP3    H136847   1.150   4.952   0.229  0.6382  1.6753 -0.3429
 3308TIP3    H236848   1.254   4.847   0.194 -1.1186 -0.5160  0.7507
 3309TIP3   OH236849   6.064   2.242   1.688 -0.5057  0.2752  0.2634
 3309TIP3    H136850   5.979   2.209   1.659  0.3390 -0.8328 -1.0496
 3309TIP3    H236851   6.043   2.300   1.762 -2.2241 -1.5439  1.2840
 3310TIP3   OH236852   5.250   4.914   0.315  0.2354 -0.0006 -0.3981
 3310TIP3    H136853   5.248   4.860   0.236  3.0721  0.7054 -1.0889
 3310TIP3    H236854   5.308   4.868   0.375 -0.7794  0.1686  0.7541
 3311TIP3   OH236855   1.263   0.194   6.900  0.0427  0.4651  0.0108
 3311TIP3    H136856   1.355   0.203   6.875  0.3711 -1.5402  0.3177
 3311TIP3    H236857   1.265   0.184   6.995 -0.2830 -1.3239 -0.1319
 3312TIP3   OH236858   7.607   2.721   5.307  0.0612 -0.4739 -0.1101
 3312TIP3    H136859   7.690   2.752   5.341  0.6651 -0.7869 -1.2780
 3312TIP3    H236860   7.612   2.733   5.212 -0.8748 -1.3040 -0.2899
 3313TIP3   OH236861   1.921   0.350   6.305  0.0819 -0.2642  0.3600
 3313TIP3    H136862   1.902   0.395   6.387 -1.1173  1.9668 -1.0158
 3313TIP3    H236863   2.004   0.387   6.276 -0.4742  0.4991 -0.3448
 3314TIP3   OH236864   5.688   5.174   6.611 -0.0036  0.1665  0.5989
 3314TIP3    H136865   5.698   5.266   6.636 -0.1242  0.5211 -0.5940
 3314TIP3    H236866   5.677   5.176   6.516 -0.1398 -1.0765  0.5714
 3315TIP3   OH236867   3.770   2.299   6.925 -0.2188  0.0650  0.0028
 3315TIP3    H136868   3.815   2.258   6.851  0.9083 -1.5979  1.5420
 3315TIP3    H236869   3.838   2.351   6.968 -0.6871  0.4158  0.3244
 3316TIP3   OH236870   0.474   0.990   6.496 -0.2167  0.0706  0.1937
 3316TIP3    H136871   0.392   0.967   6.539 -0.6960  1.1272 -0.1174
 3316TIP3    H236872   0.518   1.049   6.558  0.0236  0.0011  0.0923
 3317TIP3   OH236873   5.804   5.221   1.025 -0.0213 -0.1584  0.1563
 3317TIP3    H136874   5.780   5.205   1.116 -0.6641 -0.2751 -0.0249
 3317TIP3    H236875   5.772   5.310   1.007  1.0280  0.2756  0.3374
 3318TIP3   OH236876   3.295   3.533   1.449  0.2592 -0.4240 -0.4526
 3318TIP3    H136877   3.245   3.567   1.374  1.7542  0.1852 -1.2126
 3318TIP3    H236878   3.229   3.518   1.516 -0.9899  0.0637 -1.5134
 3319TIP3   OH236879   6.216   3.079   6.202  0.1550  0.1816  0.0391
 3319TIP3    H136880   6.212   3.174   6.211  0.9735  0.2492 -0.1362
 3319TIP3    H236881   6.296   3.064   6.151 -0.8616 -0.5075 -1.4189
 3320TIP3   OH236882   4.574   5.587   1.690  0.0327  0.2875  0.3249
 3320TIP3    H136883   4.578   5.536   1.771 -0.0496  0.2256  0.2903
 3320TIP3    H236884   4.634   5.541   1.631  0.4294  0.5842  0.4895
 3321TIP3   OH236885   0.549   8.086   6.973 -0.1654  0.0823  0.2835
 3321TIP3    H136886   0.522   8.032   7.048  0.2052  2.7726  2.5101
 3321TIP3    H236887   0.645   8.079   6.973 -0.1547  0.2445  0.1884
 3322TIP3   OH236888   5.028   6.761   0.148 -0.1312  0.1840 -0.3584
 3322TIP3    H136889   5.015   6.785   0.056  1.1433  1.0665 -0.3268
 3322TIP3    H236890   5.074   6.836   0.186 -0.7039 -0.1460  1.0214
 3323TIP3   OH236891   4.958   3.938   6.538  0.4501 -0.0646 -0.2246
 3323TIP3    H136892   4.920   3.903   6.619  3.4560 -0.1052  1.3191
 3323TIP3    H236893   4.958   3.864   6.477 -0.1439 -0.5609  0.3627
 3324TIP3   OH236894   3.122   7.261   0.070  0.0495 -0.2232  0.0225
 3324TIP3    H136895   3.083   7.267   0.157 -0.5124 -1.1028 -0.1587
 3324TIP3    H236896   3.088   7.180   0.034  0.9978 -0.3305 -0.6695
 3325TIP3   OH236897   3.231   1.180   6.001  0.3950 -0.0216 -0.0304
 3325TIP3    H136898   3.159   1.208   5.944  1.1600 -2.7686 -2.6128
 3325TIP3    H236899   3.190   1.168   6.087 -1.6526  0.8460 -0.8248
 3326TIP3   OH236900   8.428   4.864   0.051 -0.3014 -0.1873 -0.1697
 3326TIP3    H136901   8.376   4.813   0.111 -0.0829  0.3236  0.4659
 3326TIP3    H236902   8.507   4.888   0.101 -0.1441  0.2904 -0.6290
 3327TIP3   OH236903   0.626   1.981   1.581  0.7470  0.1759  0.3172
 3327TIP3    H136904   0.709   2.008   1.542  0.2727  0.2019 -0.6970
 3327TIP3    H236905   0.619   2.034   1.661  1.1069  1.0929 -0.2462
 3328TIP3   OH236906   2.702   6.614   0.555  0.2160  0.7672  0.1993
 3328TIP3    H136907   2.762   6.662   0.612  1.1576 -2.6498  2.3522
 3328TIP3    H236908   2.759   6.557   0.502 -0.9482 -0.3206  0.0701
 3329TIP3   OH236909   5.594   5.759   0.926 -0.2557  0.1706 -0.0299
 3329TIP3    H136910   5.522   5.745   0.865 -1.0077 -1.0153  1.0602
 3329TIP3    H236911   5.553   5.754   1.013  1.0854 -0.2523  0.6058
 3330TIP3   OH236912   6.822   0.548   0.755 -0.1890  0.0012  0.7193
 3330TIP3    H136913   6.903   0.575   0.798  0.1119  1.5657 -0.6984
 3330TIP3    H236914   6.765   0.520   0.827  1.1507  0.1062  1.8682
 3331TIP3   OH236915   4.536   5.072   0.903  0.3099  0.9481 -0.3023
 3331TIP3    H136916   4.503   5.128   0.973 -0.3118  1.4759 -1.0079
 3331TIP3    H236917   4.560   5.133   0.832 -1.2096  0.2967 -1.4251
 3332TIP3   OH236918   8.369   7.240   5.177  0.0365  0.3271  0.4009
 3332TIP3    H136919   8.441   7.177   5.166 -0.7080 -0.2054 -2.0743
 3332TIP3    H236920   8.412   7.321   5.202  1.1976 -0.6838  1.8430
 3333TIP3   OH236921   0.399   7.757   1.268  0.1826  0.3711  0.1791
 3333TIP3    H136922   0.382   7.680   1.322  0.2488  1.4686  1.8432
 3333TIP3    H236923   0.321   7.811   1.279  1.1605  1.6464  1.0512
 3334TIP3   OH236924   0.663   2.793   0.071  0.6592  0.3413 -0.1115
 3334TIP3    H136925   0.711   2.721   0.030 -0.2283  0.2950 -1.1082
 3334TIP3    H236926   0.731   2.854   0.100  1.3146  0.4111 -1.7241
 3335TIP3   OH236927   7.601   0.438   0.087  0.1934  0.1395  0.9267
 3335TIP3    H136928   7.680   0.435   0.033 -0.2964  1.0096  0.1411
 3335TIP3    H236929   7.562   0.351   0.077  1.0362 -0.3080  1.3357
 3336TIP3   OH236930   5.385   6.789   0.012 -0.2546 -0.2762 -0.2788
 3336TIP3    H136931   5.470   6.753   7.059 -0.5613 -0.6892 -0.7592
 3336TIP3    H236932   5.353   6.730   0.080 -1.0890 -1.3822 -1.5917
 3337TIP3   OH236933   0.601   2.871   0.649 -0.6937  0.2101  0.0777
 3337TIP3    H136934   0.548   2.822   0.586 -0.4220  0.1413 -0.0986
 3337TIP3    H236935   0.653   2.931   0.596  2.7913 -2.7881 -0.2617
 3338TIP3   OH236936   0.201   7.319   0.884  0.2398  0.3399 -0.2726
 3338TIP3    H136937   0.182   7.399   0.934  0.2913 -0.1932  0.6342
 3338TIP3    H236938   0.286   7.290   0.917  0.0240 -0.3187 -0.2808
 3339TIP3   OH236939   5.368   4.044   6.952 -0.5346  0.2499  0.1302
 3339TIP3    H136940   5.385   4.075   6.863 -2.8909  1.3892 -0.0056
 3339TIP3    H236941   5.307   4.108   6.989 -0.8052 -1.0054  2.0462
 3340TIP3   OH236942   3.551   7.441   0.340  0.3175  0.0784 -0.5728
 3340TIP3    H136943   3.588   7.503   0.403  0.1854 -1.6291  1.2823
 3340TIP3    H236944   3.463   7.473   0.323  0.4895  0.7738 -0.1808
 3341TIP3   OH236945   3.382   3.343   5.224  0.3793 -0.3024 -0.0378
 3341TIP3    H136946   3.380   3.249   5.206  1.8132 -0.1416 -1.2806
 3341TIP3    H236947   3.398   3.384   5.138 -0.0802  1.0679  0.4936
 3342TIP3   OH236948   5.302   5.068   6.970 -1.0685 -0.3508 -0.1607
 3342TIP3    H136949   5.343   5.063   6.883 -0.8196  0.8006 -0.1252
 3342TIP3    H236950   5.209   5.058   6.953 -1.2606  2.0088 -0.8516
 3343TIP3   OH236951   4.459   6.130   5.793 -0.2658 -0.0601  0.0667
 3343TIP3    H136952   4.435   6.157   5.882 -1.2283 -1.1407  0.1534
 3343TIP3    H236953   4.376   6.125   5.746  0.2389  0.5086 -0.9095
 3344TIP3   OH236954   6.813   1.639   6.326 -0.6046  0.0461  0.0921
 3344TIP3    H136955   6.895   1.598   6.297 -0.1795  1.9087 -1.5387
 3344TIP3    H236956   6.782   1.582   6.397  0.2124 -2.7199 -1.6172
 3345TIP3   OH236957   5.164   5.648   0.814 -0.6779  0.1354 -0.5870
 3345TIP3    H136958   5.120   5.578   0.766 -1.6858  1.0134 -0.9799
 3345TIP3    H236959   5.116   5.654   0.896 -1.7091  1.4805 -1.2508
 3346TIP3   OH236960   7.164   6.673   5.549  1.0798 -0.0922 -0.2377
 3346TIP3    H136961   7.121   6.618   5.614 -0.0480 -0.7460 -1.4967
 3346TIP3    H236962   7.187   6.753   5.597 -0.5696 -0.1644  0.7303
 3347TIP3   OH236963   5.863   6.716   5.824 -0.8668 -0.4919  0.8452
 3347TIP3    H136964   5.907   6.761   5.751  2.5242 -2.6043  1.3904
 3347TIP3    H236965   5.847   6.786   5.888  1.9355  0.4604  0.6521
 3348TIP3   OH236966   8.160   5.219   1.648 -0.0399  0.2883  0.3035
 3348TIP3    H136967   8.149   5.247   1.739 -1.3992  0.3139  0.1562
 3348TIP3    H236968   8.251   5.191   1.642  0.0288  0.1574  1.7032
 3349TIP3   OH236969   3.901   4.688   5.154  0.3433  0.0194 -0.2125
 3349TIP3    H136970   3.869   4.619   5.214  0.4860 -1.0950 -1.3671
 3349TIP3    H236971   3.891   4.769   5.203 -0.0695 -0.8024  1.1130
 3350TIP3   OH236972   7.231   8.236   0.960 -0.0643 -0.1139  0.0181
 3350TIP3    H136973   7.223   8.281   0.876 -0.5207  0.8429  0.5659
 3350TIP3    H236974   7.155   8.178   0.964  0.1536 -0.4321 -0.3841
 3351TIP3   OH236975   1.905   6.950   0.572 -0.1348  0.1915 -0.2244
 3351TIP3    H136976   1.864   6.926   0.656  0.0736  0.4965 -0.0343
 3351TIP3    H236977   1.855   6.901   0.507 -0.9302  0.7013 -0.0136
 3352TIP3   OH236978   3.956   2.963   6.244  0.0009  0.1425 -0.0752
 3352TIP3    H136979   3.865   2.976   6.217  0.4807 -0.7402 -2.3783
 3352TIP3    H236980   3.951   2.903   6.319 -1.4049  2.5037  1.8707
 3353TIP3   OH236981   0.704   1.303   0.091  0.3145  0.7024  0.1923
 3353TIP3    H136982   0.780   1.279   0.144  0.4525 -0.1342 -0.3651
 3353TIP3    H236983   0.737   1.370   0.031  0.9025 -0.3988 -0.7561
 3354TIP3   OH236984   4.013   4.856   5.764  0.2594 -0.1965 -0.2500
 3354TIP3    H136985   4.088   4.898   5.723 -0.5097 -0.9236 -2.5851
 3354TIP3    H236986   3.988   4.786   5.703  0.3193 -2.8586  2.5317
 3355TIP3   OH236987   5.018   5.946   0.967 -0.1952  0.1575  0.2659
 3355TIP3    H136988   4.991   5.996   0.890 -0.5750 -2.5663 -1.5120
 3355TIP3    H236989   5.113   5.938   0.959 -0.3288 -0.8452 -0.4214
 3356TIP3   OH236990   4.633   3.085   5.403 -0.5576  0.7113 -0.5726
 3356TIP3    H136991   4.640   3.118   5.493  0.7655 -0.3017 -0.2876
 3356TIP3    H236992   4.558   3.025   5.405 -0.5084  0.6631 -0.1474
 3357TIP3   OH236993   3.831   4.580   1.604  0.4430  0.0902  0.2721
 3357TIP3    H136994   3.913   4.628   1.599  0.6734 -0.2822  0.4433
 3357TIP3    H236995   3.775   4.633   1.662 -0.5337  1.9188 -2.1822
 3358TIP3   OH236996   2.989   5.370   5.193  1.2271 -0.2970  0.2010
 3358TIP3    H136997   3.035   5.297   5.235  2.1599  0.3605  0.3290
 3358TIP3    H236998   3.049   5.444   5.200  0.0638  0.6370  0.5735
 3359TIP3   OH236999   2.555   5.230   1.364 -0.0281 -0.3051  0.5961
 3359TIP3    H137000   2.501   5.186   1.298  0.8958 -1.3740  0.5237
 3359TIP3    H237001   2.496   5.294   1.405 -0.4217  0.9822 -1.8050
 3360TIP3   OH237002   7.382   7.192   0.969  0.5921 -0.3910  0.1833
 3360TIP3    H137003   7.445   7.123   0.944  1.3655  0.4824 -0.3559
 3360TIP3    H237004   7.372   7.244   0.889  1.9345  1.5718  1.2293
 3361TIP3   OH237005   3.066   1.828   6.158 -0.1359  0.7362 -0.1621
 3361TIP3    H137006   3.038   1.766   6.225  1.2096 -0.0579 -0.2992
 3361TIP3    H237007   3.001   1.820   6.088 -0.3548 -0.0101  0.1212
 3362TIP3   OH237008   1.838   5.080   6.701  0.3385 -0.0797 -0.5224
 3362TIP3    H137009   1.746   5.065   6.681  0.1063  0.2046  0.2918
 3362TIP3    H237010   1.842   5.171   6.731  0.6628 -0.4623  0.6519
 3363TIP3   OH237011   6.475   7.278   6.819 -0.3086 -0.0905  0.5272
 3363TIP3    H137012   6.418   7.202   6.809 -1.0077  0.4652  0.1786
 3363TIP3    H237013   6.541   7.250   6.882 -0.0034 -1.2998 -0.2717
 3364TIP3   OH237014   5.487   6.811   6.638 -0.0612 -0.2034  0.2093
 3364TIP3    H137015   5.496   6.741   6.573 -0.4081  1.1757 -1.4088
 3364TIP3    H237016   5.575   6.847   6.647 -0.2965  0.7680 -0.9442
 3365TIP3   OH237017   6.379   7.115   0.135  0.1330  0.0830 -0.1131
 3365TIP3    H137018   6.354   7.193   0.185  2.3616  0.5804  0.3314
 3365TIP3    H237019   6.451   7.145   0.080  0.3219 -1.4243 -0.7060
 3366TIP3   OH237020   6.763   6.348   1.354 -0.7012 -0.1098 -0.8532
 3366TIP3    H137021   6.726   6.277   1.408 -2.5087 -0.3073 -2.2757
 3366TIP3    H237022   6.692   6.412   1.346  0.6936  1.6017 -0.1404
 3367TIP3   OH237023   7.906   5.925   6.727 -0.1312 -0.1900 -0.0851
 3367TIP3    H137024   7.955   5.927   6.809  0.2388 -0.8038 -0.2800
 3367TIP3    H237025   7.814   5.930   6.754 -0.0513 -1.1319  0.4242
 3368TIP3   OH237026   2.199   2.862   4.886 -0.2862  0.0462  0.1788
 3368TIP3    H137027   2.104   2.856   4.894 -0.3217  1.7635  1.7759
 3368TIP3    H237028   2.228   2.895   4.972  1.9411 -2.1437  0.3724
 3369TIP3   OH237029   6.014   2.033   6.116  0.0103  0.2568  0.0217
 3369TIP3    H137030   5.991   2.120   6.082  0.1366  0.3375  0.1424
 3369TIP3    H237031   5.985   1.973   6.048 -1.4992  0.2801  0.6181
 3370TIP3   OH237032   5.718   0.982   6.728 -0.4591  0.4683  0.0149
 3370TIP3    H137033   5.643   1.037   6.752  2.6738  4.5541  1.7148
 3370TIP3    H237034   5.727   0.921   6.801 -0.3084  2.2038  1.5312
 3371TIP3   OH237035   0.877   1.453   5.160 -0.8446 -0.2746 -0.1875
 3371TIP3    H137036   0.875   1.484   5.070 -2.8882 -1.3140 -0.5656
 3371TIP3    H237037   0.912   1.364   5.154  0.7515  0.2770  0.3257
 3372TIP3   OH237038   7.370   3.716   1.370 -0.2157 -0.0216 -0.7474
 3372TIP3    H137039   7.334   3.760   1.293 -0.3976 -0.2860 -0.8142
 3372TIP3    H237040   7.339   3.768   1.444 -1.9741 -1.0710 -0.7052
 3373TIP3   OH237041   8.187   3.941   6.789  0.3149 -0.4945 -0.2341
 3373TIP3    H137042   8.107   3.936   6.737  0.0066 -0.2281  0.2160
 3373TIP3    H237043   8.245   3.998   6.738 -0.2073  0.2628  0.0042
 3374TIP3   OH237044   0.518   6.647   0.381  0.1316 -0.2320  0.6198
 3374TIP3    H137045   0.598   6.610   0.419  1.7124 -0.3233 -2.4522
 3374TIP3    H237046   0.529   6.742   0.389  0.6096 -0.2421  0.1991
 3375TIP3   OH237047   3.741   5.333   6.400 -0.3781  0.0711 -0.6416
 3375TIP3    H137048   3.789   5.395   6.345  0.4156 -0.1507 -0.2118
 3375TIP3    H237049   3.809   5.285   6.448 -1.0639  1.9150  2.4015
 3376TIP3   OH237050   2.200   6.609   0.426 -0.5583 -0.3145 -0.1040
 3376TIP3    H137051   2.244   6.575   0.504 -0.8525  0.3183  0.3547
 3376TIP3    H237052   2.107   6.589   0.441 -0.7790  0.9357  0.3317
 3377TIP3   OH237053   2.600   5.268   6.053 -0.0860 -0.5433 -0.4100
 3377TIP3    H137054   2.661   5.295   6.122 -0.1061  0.4129 -0.7607
 3377TIP3    H237055   2.561   5.187   6.086  1.0448 -0.9318  0.0220
 3378TIP3   OH237056   4.554   4.571   5.660 -0.2228  0.0433  0.4500
 3378TIP3    H137057   4.463   4.597   5.679 -0.3436 -1.0966  1.5808
 3378TIP3    H237058   4.547   4.478   5.636  0.6615 -0.1025  0.7428
 3379TIP3   OH237059   2.639   0.246   0.114  0.8341 -0.0255  0.1091
 3379TIP3    H137060   2.681   0.202   0.041  0.4552 -1.2574  0.6107
 3379TIP3    H237061   2.712   0.287   0.162  1.1888 -0.0778 -0.3757
 3380TIP3   OH237062   1.648   6.654   0.535 -0.3553 -0.1672  0.3986
 3380TIP3    H137063   1.633   6.560   0.546 -0.3895 -0.1179  0.7932
 3380TIP3    H237064   1.571   6.685   0.487 -0.5015 -0.2886  0.5512
 3381TIP3   OH237065   5.445   2.794   5.710 -0.0405 -0.2092 -0.3331
 3381TIP3    H137066   5.387   2.826   5.641  0.5049  1.6296 -0.0007
 3381TIP3    H237067   5.465   2.872   5.762  3.3924 -0.5483 -0.9061
 3382TIP3   OH237068   2.506   7.932   0.295  0.1319 -0.0172  0.2806
 3382TIP3    H137069   2.445   7.978   0.353 -0.2017 -0.1779  0.0609
 3382TIP3    H237070   2.534   7.856   0.346 -0.6755 -0.5201 -0.0110
 3383TIP3   OH237071   5.832   4.889   0.314 -0.0528  0.3018 -0.1798
 3383TIP3    H137072   5.737   4.887   0.322  0.0216  2.2430  2.7543
 3383TIP3    H237073   5.851   4.969   0.265  0.0797  1.2420  1.3616
 3384TIP3   OH237074   5.451   7.930   1.034  0.4031  0.0769  0.4990
 3384TIP3    H137075   5.480   7.993   0.968  0.4913 -0.0718  0.3966
 3384TIP3    H237076   5.531   7.887   1.063  0.4799  0.7597  1.3438
 3385TIP3   OH237077   5.176   5.395   2.043  0.0691  0.2856  0.0673
 3385TIP3    H137078   5.140   5.320   2.090 -2.0302  0.4912 -1.0980
 3385TIP3    H237079   5.126   5.470   2.075  0.5890  0.8524 -0.4194
 3386TIP3   OH237080   7.222   6.795   7.017 -0.2906  0.3942 -0.2102
 3386TIP3    H137081   7.193   6.747   6.940  1.9500  0.0041 -0.8910
 3386TIP3    H237082   7.305   6.754   7.041  0.1197  1.8950  1.1080
 3387TIP3   OH237083   1.059   3.569   6.782 -0.2871  0.1776  0.2059
 3387TIP3    H137084   0.992   3.547   6.846  1.1836 -1.7075  1.2207
 3387TIP3    H237085   1.012   3.615   6.712 -2.5349 -0.7033  1.0496
 3388TIP3   OH237086   7.982   7.329   0.802 -0.7348 -0.3304 -0.2492
 3388TIP3    H137087   7.969   7.423   0.799 -0.2489 -0.2815 -1.1305
 3388TIP3    H237088   7.910   7.292   0.751 -1.3260 -0.4930  0.6754
 3389TIP3   OH237089   0.920   4.639   5.808 -0.7649  0.0965 -0.0473
 3389TIP3    H137090   0.826   4.618   5.811 -0.8580  0.5189  0.1551
 3389TIP3    H237091   0.951   4.624   5.897 -0.7655  0.4924  0.0228
 3390TIP3   OH237092   0.336   7.161   1.477 -0.7868 -0.0674 -0.2756
 3390TIP3    H137093   0.327   7.239   1.533  0.4630 -0.3173  0.3059
 3390TIP3    H237094   0.246   7.128   1.468 -1.1071  0.3522  1.0576
 3391TIP3   OH237095   1.002   5.346   1.588 -0.4182 -0.2035 -0.2791
 3391TIP3    H137096   0.960   5.349   1.502 -1.6636 -2.3137  0.1880
 3391TIP3    H237097   1.086   5.303   1.573  0.0752  0.8591 -0.6575
 3392TIP3   OH237098   6.669   1.651   6.756 -0.0429 -0.0258  0.1324
 3392TIP3    H137099   6.582   1.611   6.753  0.2749 -0.7011 -0.1918
 3392TIP3    H237100   6.724   1.588   6.803  0.2601  0.4257  0.3947
 3393TIP3   OH237101   3.302   4.085   5.614 -0.2609 -0.0190 -0.3545
 3393TIP3    H137102   3.253   4.145   5.558 -0.8918  0.4107  0.6215
 3393TIP3    H237103   3.367   4.045   5.556 -0.3259  1.0434 -1.1900
 3394TIP3   OH237104   1.583   5.907   6.307 -0.2128  0.7730 -0.5510
 3394TIP3    H137105   1.588   5.812   6.317 -2.1402  0.5730 -1.1924
 3394TIP3    H237106   1.569   5.940   6.396  0.6509  0.4995 -0.2993
 3395TIP3   OH237107   3.727   2.907   0.088 -0.4217 -0.5753  0.3717
 3395TIP3    H137108   3.820   2.914   0.065 -0.1595 -1.3951  1.0971
 3395TIP3    H237109   3.710   2.983   0.144 -0.2175 -0.3686  0.1562
 3396TIP3   OH237110   8.057   2.182   1.778  0.2176  0.3391 -0.6581
 3396TIP3    H137111   8.074   2.088   1.771 -1.7115 -0.1058  0.0180
 3396TIP3    H237112   8.052   2.199   1.872  0.9301  1.2116 -0.7660
 3397TIP3   OH237113   0.612   5.326   0.312  0.8484 -0.5661 -0.1933
 3397TIP3    H137114   0.557   5.263   0.359 -1.0214  1.2051  0.1198
 3397TIP3    H237115   0.621   5.289   0.224 -1.1507 -0.7775 -0.3549
 3398TIP3   OH237116   4.677   6.462   6.184  0.5903 -0.6460  0.3262
 3398TIP3    H137117   4.645   6.404   6.253  1.6441  0.0142  1.4109
 3398TIP3    H237118   4.599   6.508   6.152  0.0380 -1.2603  0.7896
 3399TIP3   OH237119   6.445   0.005   6.244  0.5731  0.4344  0.0570
 3399TIP3    H137120   6.391   8.461   6.243  0.7004  0.3285 -1.8236
 3399TIP3    H237121   6.382   0.076   6.259  0.4241  0.0230  1.4985
 3400TIP3   OH237122   1.029   2.610   6.181 -0.4108 -0.0588  0.3971
 3400TIP3    H137123   1.066   2.628   6.094 -1.0703  2.2279  0.5221
 3400TIP3    H237124   1.102   2.626   6.241 -0.8025  1.8698  0.4508
 3401TIP3   OH237125   8.092   2.401   5.600  0.3016 -0.0398 -0.0799
 3401TIP3    H137126   8.103   2.314   5.637  1.0397 -0.5193 -1.3461
 3401TIP3    H237127   8.006   2.399   5.559  1.7657 -1.5989 -3.5088
 3402TIP3   OH237128   0.810   0.644   6.911  0.3876  0.2214 -0.0006
 3402TIP3    H137129   0.743   0.576   6.906 -1.5171  1.8504  1.6022
 3402TIP3    H237130   0.892   0.599   6.889 -0.5863 -2.8282  1.9677
 3403TIP3   OH237131   5.359   3.812   0.592  0.8306  0.2760 -0.5230
 3403TIP3    H137132   5.398   3.869   0.525  0.2359  0.7321 -0.4892
 3403TIP3    H237133   5.279   3.779   0.551  0.6739  0.2295 -0.1826
 3404TIP3   OH237134   0.512   8.114   1.425 -0.4855 -0.3202 -0.1727
 3404TIP3    H137135   0.590   8.165   1.402 -0.7476 -0.3474 -1.1486
 3404TIP3    H237136   0.440   8.158   1.381 -0.6931 -1.6296 -1.1974
 3405TIP3   OH237137   4.670   0.474   5.346  0.5733 -0.3377  0.4675
 3405TIP3    H137138   4.730   0.403   5.325  0.1488 -0.5743  0.0392
 3405TIP3    H237139   4.721   0.554   5.329  1.2664 -0.5257  1.5855
 3406TIP3   OH237140   0.707   7.707   4.903  0.1261 -0.5429  0.2831
 3406TIP3    H137141   0.675   7.752   4.982 -1.9784  0.2756 -0.9608
 3406TIP3    H237142   0.675   7.760   4.831  1.1282 -1.8441 -1.1771
 3407TIP3   OH237143   7.739   3.008   0.382 -0.7077 -0.1770  0.0148
 3407TIP3    H137144   7.655   3.022   0.338 -0.3990 -2.5720 -1.5040
 3407TIP3    H237145   7.751   2.913   0.383  0.7007 -0.0704  2.7618
 3408TIP3   OH237146   5.832   6.167   6.064 -0.2636  0.3305  0.1649
 3408TIP3    H137147   5.741   6.185   6.086 -0.4773 -1.8440  1.3919
 3408TIP3    H237148   5.879   6.178   6.147  0.0797 -1.2731  0.2260
 3409TIP3   OH237149   3.795   5.706   6.809  0.3834  0.7904  0.7444
 3409TIP3    H137150   3.768   5.617   6.787 -3.1996  1.7679  0.5617
 3409TIP3    H237151   3.808   5.704   6.904 -1.1959  0.3644  0.9794
 3410TIP3   OH237152   3.032   3.711   4.710 -0.4217  0.2689 -0.1850
 3410TIP3    H137153   3.060   3.763   4.786  1.7153 -0.1044 -0.6573
 3410TIP3    H237154   3.014   3.776   4.642  0.3910  0.4915 -0.1951
 3411TIP3   OH237155   0.086   1.843   0.233  0.2122  0.2923 -0.2436
 3411TIP3    H137156   0.129   1.776   0.180 -1.1004 -0.0111 -0.9839
 3411TIP3    H237157   8.532   1.847   0.198 -0.3702  0.8790  1.2298
 3412TIP3   OH237158   6.441   6.406   1.793  0.3447 -0.5041 -0.4609
 3412TIP3    H137159   6.468   6.338   1.854 -0.4607 -0.3051  0.1281
 3412TIP3    H237160   6.346   6.409   1.801  0.3231  0.2746 -0.9342
 3413TIP3   OH237161   5.984   4.168   1.756 -0.0203 -0.0837 -0.3952
 3413TIP3    H137162   6.072   4.203   1.771 -0.5784  0.7356  1.0858
 3413TIP3    H237163   5.939   4.237   1.707 -0.0108 -0.2910 -0.7024
 3414TIP3   OH237164   0.854   3.648   0.079  0.0857 -0.4630 -0.7995
 3414TIP3    H137165   0.881   3.739   0.078  1.6564 -0.8874 -0.4620
 3414TIP3    H237166   0.823   3.630   7.062 -0.2592  0.4058 -0.8550
 3415TIP3   OH237167   4.563   5.311   0.742  0.1458 -0.0461  0.4701
 3415TIP3    H137168   4.478   5.356   0.748  0.6375  1.1607 -1.1412
 3415TIP3    H237169   4.555   5.256   0.664  0.8549  0.1146  0.2778
 3416TIP3   OH237170   5.683   7.486   0.873  0.8229  0.1654  0.1608
 3416TIP3    H137171   5.712   7.405   0.831  0.7986  0.9173 -1.3820
 3416TIP3    H237172   5.764   7.531   0.898  0.8899  0.4625 -0.5787
 3417TIP3   OH237173   7.237   4.398   7.006 -0.5835 -0.1061 -0.3075
 3417TIP3    H137174   7.174   4.387   0.006  1.3696 -1.9694  1.2900
 3417TIP3    H237175   7.264   4.489   7.011 -1.0438 -0.0166  0.8540
 3418TIP3   OH237176   7.391   4.337   6.776 -0.0004  0.5502  0.3914
 3418TIP3    H137177   7.433   4.409   6.823 -1.2241  1.0451  0.7735
 3418TIP3    H237178   7.349   4.286   6.845  2.5699 -1.8144  0.3964
 3419TIP3   OH237179   3.450   1.397   1.736  0.4125  0.0528 -0.1489
 3419TIP3    H137180   3.510   1.340   1.688  0.9353  0.5948 -0.1520
 3419TIP3    H237181   3.492   1.483   1.733  0.0673  0.2533  0.6055
 3420TIP3   OH237182   5.658   8.121   1.245  0.2888  0.3542 -0.1892
 3420TIP3    H137183   5.679   8.028   1.247 -0.1101  0.2138 -1.3520
 3420TIP3    H237184   5.630   8.142   1.334  0.8227 -0.5277  0.1976
 3421TIP3   OH237185   3.067   8.371   6.712  0.0417  0.0100  0.8172
 3421TIP3    H137186   3.095   8.285   6.743  0.2135  0.0788  0.8554
 3421TIP3    H237187   3.122   8.388   6.635  0.2501  0.2332  1.0109
 3422TIP3   OH237188   5.417   2.250   6.129  0.2293  0.1080 -0.2831
 3422TIP3    H137189   5.375   2.336   6.131  0.3672  0.2257 -1.7151
 3422TIP3    H237190   5.511   2.268   6.138  0.3410  0.1990 -1.4668
 3423TIP3   OH237191   5.020   7.591   7.055  0.3314 -0.4247 -0.2492
 3423TIP3    H137192   5.074   7.530   0.035  1.0463 -0.4824 -1.0575
 3423TIP3    H237193   5.083   7.649   7.012 -0.3307  1.5337  1.2530
 3424TIP3   OH237194   0.098   6.524   5.571  0.3682 -0.8110  0.3553
 3424TIP3    H137195   0.150   6.564   5.641 -0.8374 -0.2375  0.9550
 3424TIP3    H237196   0.157   6.521   5.496  0.7193  1.5591  0.4498
 3425TIP3   OH237197   0.215   0.258   6.553 -0.5563  0.0709 -0.4973
 3425TIP3    H137198   0.152   0.263   6.626 -2.3891 -1.0649 -1.9053
 3425TIP3    H237199   0.204   0.170   6.519  1.6531 -0.0460 -0.9908
 3426TIP3   OH237200   2.402   2.618   4.588 -0.3785  0.2175  0.1739
 3426TIP3    H137201   2.400   2.713   4.600 -0.8149  0.5872 -2.2326
 3426TIP3    H237202   2.311   2.593   4.575 -0.0519  0.0362 -2.3567
 3427TIP3   OH237203   5.858   2.296   7.069 -0.2070 -0.0281 -0.5651
 3427TIP3    H137204   5.918   2.271   6.999  0.1379  2.7132 -1.3471
 3427TIP3    H237205   5.781   2.330   7.024 -0.7351  0.1127  0.4138
 3428TIP3   OH237206   4.176   8.241   6.590  0.5141 -0.0768  0.8084
 3428TIP3    H137207   4.217   8.283   6.514  0.9419 -0.0734  1.0383
 3428TIP3    H237208   4.089   8.281   6.596 -0.3804 -1.5744 -0.9693
 3429TIP3   OH237209   8.223   6.096   6.281 -0.1230  0.1239 -0.1420
 3429TIP3    H137210   8.221   6.056   6.368  0.3684  0.6521  0.1185
 3429TIP3    H237211   8.316   6.100   6.259 -0.2803 -2.7272 -1.9826
 3430TIP3   OH237212   1.165   4.886   0.745  0.2385 -0.1060  0.5919
 3430TIP3    H137213   1.251   4.889   0.703  0.6327  0.7934  1.4209
 3430TIP3    H237214   1.113   4.951   0.697 -0.0657 -0.8025 -0.0499
 3431TIP3   OH237215   3.797   5.197   5.666  0.2371  0.0352 -0.4678
 3431TIP3    H137216   3.832   5.149   5.592  0.1745 -2.0773  0.7747
 3431TIP3    H237217   3.708   5.161   5.678  0.1280  0.5608  0.4107
 3432TIP3   OH237218   0.586   2.750   6.489 -0.0979  0.4143  0.1188
 3432TIP3    H137219   0.630   2.672   6.455  0.8073  2.0136 -2.7393
 3432TIP3    H237220   0.527   2.776   6.418 -0.4914  2.2357  1.0611
 3433TIP3   OH237221   8.005   3.246   6.237  0.1403  0.1247 -0.4852
 3433TIP3    H137222   7.920   3.239   6.193 -0.6463  2.8502  0.4480
 3433TIP3    H237223   8.025   3.156   6.264 -3.2223 -0.4216  0.6411
 3434TIP3   OH237224   5.557   0.194   1.310 -0.5692  0.0835 -0.2770
 3434TIP3    H137225   5.476   0.240   1.289 -0.2138  0.4360 -0.8948
 3434TIP3    H237226   5.530   0.127   1.373 -1.3379  0.1960 -0.4687
 3435TIP3   OH237227   0.218   6.349   1.627 -0.0757  0.3508 -0.0507
 3435TIP3    H137228   0.229   6.444   1.627  1.5141  0.2079 -0.7760
 3435TIP3    H237229   0.125   6.336   1.609 -0.5496  1.7588  1.1736
 3436TIP3   OH237230   2.114   5.654   2.011 -0.4189 -0.0401  0.2161
 3436TIP3    H137231   2.199   5.676   1.972 -0.8725  0.0530 -0.7437
 3436TIP3    H237232   2.056   5.724   1.983 -1.6681 -1.8373 -2.1113
 3437TIP3   OH237233   5.094   6.007   1.301  0.0182 -0.5106  0.0680
 3437TIP3    H137234   5.063   6.030   1.388 -1.8797  0.5781 -0.8227
 3437TIP3    H237235   5.064   5.917   1.287 -1.1704 -0.1003 -0.0790
 3438TIP3   OH237236   7.462   8.108   7.054  0.3284  0.0338  0.2596
 3438TIP3    H137237   7.493   8.066   0.063  1.2179  1.1452  0.5220
 3438TIP3    H237238   7.525   8.081   6.987  0.8665  0.8863  0.4162
 3439TIP3   OH237239   2.831   4.720   5.489  0.8066  0.0879  0.3741
 3439TIP3    H137240   2.872   4.802   5.519  1.1576 -0.2634  0.8852
 3439TIP3    H237241   2.861   4.710   5.399 -0.2318  1.1447 -0.1207
 3440TIP3   OH237242   6.141   7.561   6.121 -0.1793 -0.2650  0.1207
 3440TIP3    H137243   6.190   7.561   6.039 -1.6860  0.0832 -0.8037
 3440TIP3    H237244   6.060   7.609   6.101 -1.2603 -1.4940  1.3849
 3441TIP3   OH237245   7.318   7.360   4.964  0.3292  0.3578  0.1855
 3441TIP3    H137246   7.337   7.426   4.897  0.0831 -0.4465 -0.6890
 3441TIP3    H237247   7.227   7.336   4.948 -0.0806  0.9637  1.5231
 3442TIP3   OH237248   4.418   2.163   6.174  0.4052 -0.4815 -0.3068
 3442TIP3    H137249   4.419   2.116   6.091 -1.4882  0.8528 -1.1677
 3442TIP3    H237250   4.507   2.200   6.182  0.5297 -0.3677 -1.9206
 3443TIP3   OH237251   2.022   0.060   0.554 -0.0372  0.0819  0.3043
 3443TIP3    H137252   2.115   0.079   0.567  0.6765 -1.6592 -1.7999
 3443TIP3    H237253   2.008   8.510   0.594 -0.7530  0.3356  0.6222
 3444TIP3   OH237254   1.751   0.680   0.056  0.1494 -0.3093  0.2436
 3444TIP3    H137255   1.833   0.714   0.020  0.8704 -2.2410 -0.0148
 3444TIP3    H237256   1.744   0.592   0.021 -1.2268 -0.7546  1.5697
 3445TIP3   OH237257   7.940   2.050   0.247  0.6851  0.0872 -0.1897
 3445TIP3    H137258   7.999   2.102   0.302 -0.0211 -0.5864  1.2871
 3445TIP3    H237259   7.997   2.010   0.181  2.2100 -1.6956  2.0357
 3446TIP3   OH237260   2.388   4.136   0.380 -0.2204 -0.9341 -0.2087
 3446TIP3    H137261   2.332   4.208   0.408  1.7287  0.9778 -1.0261
 3446TIP3    H237262   2.430   4.105   0.460 -0.7829 -0.9211  0.0933
 3447TIP3   OH237263   2.145   3.963   1.200 -0.0810  0.2579 -0.3579
 3447TIP3    H137264   2.179   3.876   1.220 -0.6839 -0.2642 -1.5068
 3447TIP3    H237265   2.197   3.992   1.126 -1.6236 -0.2852 -1.7272
 3448TIP3   OH237266   5.898   2.981   6.253  0.2108 -0.2265  0.5127
 3448TIP3    H137267   5.911   2.906   6.312  0.9389 -1.5370 -1.2216
 3448TIP3    H237268   5.976   3.035   6.267  0.7710 -0.9356  0.2012
 3449TIP3   OH237269   4.980   8.405   0.286  0.0961  0.2218  0.1574
 3449TIP3    H137270   5.040   8.389   0.214 -1.6922  0.7538 -1.5280
 3449TIP3    H237271   4.989   8.498   0.304  0.3169  0.1484  0.4418
 3450TIP3   OH237272   5.633   6.066   6.861 -0.3640 -0.2431  0.5231
 3450TIP3    H137273   5.644   5.982   6.815  1.6168  0.3384 -0.1461
 3450TIP3    H237274   5.544   6.062   6.896 -1.5692 -1.2518 -2.3233
 3451TIP3   OH237275   4.566   3.358   6.681  0.0566 -0.3440 -0.0269
 3451TIP3    H137276   4.662   3.360   6.691  0.0212  0.2495  0.2402
 3451TIP3    H237277   4.549   3.419   6.609 -0.2445  0.9115  1.0646
 3452TIP3   OH237278   5.929   4.677   5.022  0.1496  0.1157 -0.0049
 3452TIP3    H137279   6.000   4.631   4.978  0.7402  1.5729 -0.6529
 3452TIP3    H237280   5.892   4.733   4.954 -1.3762 -0.3315  0.4268
 3453TIP3   OH237281   2.318   1.065   5.225 -0.0827 -0.1145  0.3416
 3453TIP3    H137282   2.310   0.995   5.160 -0.5921  2.2231 -2.2738
 3453TIP3    H237283   2.412   1.072   5.241  0.0229 -0.9715  0.1806
 3454TIP3   OH237284   4.081   4.060   6.945  0.0793  0.6511  0.3548
 3454TIP3    H137285   4.016   4.037   6.879 -0.3717  1.9628  0.3239
 3454TIP3    H237286   4.127   3.978   6.962 -1.5951 -0.3294  0.4062
 3455TIP3   OH237287   2.009   4.929   6.867 -1.1032  0.2008 -0.6071
 3455TIP3    H137288   2.086   4.961   6.914 -0.9446 -1.3878  0.2775
 3455TIP3    H237289   1.983   5.003   6.812  0.6287  1.0138 -0.4171
 3456TIP3   OH237290   5.495   7.762   5.514  0.9058  0.5715  0.2705
 3456TIP3    H137291   5.563   7.710   5.471  0.3347 -0.3013  0.3962
 3456TIP3    H237292   5.511   7.750   5.607  0.1269 -0.2777  0.3106
 3457TIP3   OH237293   8.221   6.969   5.301 -0.2684  0.4304  0.1502
 3457TIP3    H137294   8.209   6.923   5.218 -0.0239  2.4245 -1.0659
 3457TIP3    H237295   8.247   7.058   5.276  0.4403  0.9341  2.3847
 3458TIP3   OH237296   7.778   6.333   6.740  0.8419  0.1981  0.1898
 3458TIP3    H137297   7.718   6.354   6.668  0.9601  0.0285  0.0395
 3458TIP3    H237298   7.814   6.247   6.717  0.6857  0.0280  0.5819
 3459TIP3   OH237299   5.165   5.834   0.024 -0.0167  0.6667 -0.4959
 3459TIP3    H137300   5.191   5.743   0.007 -0.4111  0.5323 -0.3843
 3459TIP3    H237301   5.081   5.843   7.050  1.1988  1.7412 -2.7512
 3460TIP3   OH237302   5.537   3.405   5.355  0.1739  0.5319 -0.4708
 3460TIP3    H137303   5.466   3.422   5.293 -0.3686  0.8916  0.2348
 3460TIP3    H237304   5.493   3.367   5.431  0.8346  0.0950 -0.3040
 3461TIP3   OH237305   1.015   3.050   5.822 -0.2460  0.1371 -0.1490
 3461TIP3    H137306   1.097   3.000   5.830  0.2246  0.5011 -2.1765
 3461TIP3    H237307   1.003   3.061   5.728 -4.0005 -2.0705 -0.1358
 3462TIP3   OH237308   0.090   0.717   1.876  0.2740 -0.1149 -0.0683
 3462TIP3    H137309   0.164   0.744   1.930  1.7587 -0.8740 -1.6383
 3462TIP3    H237310   0.050   0.799   1.847  0.6065  0.3122  0.6502
 3463TIP3   OH237311   6.636   3.198   2.196  0.2870  0.5268  0.9718
 3463TIP3    H137312   6.715   3.173   2.148  1.1246 -0.0549  2.5955
 3463TIP3    H237313   6.571   3.134   2.167  0.7955  0.1210  0.6925
 3464TIP3   OH237314   2.399   6.884   0.853  0.1825  0.4318 -0.3287
 3464TIP3    H137315   2.371   6.834   0.931  1.8190  0.2276  0.1673
 3464TIP3    H237316   2.318   6.909   0.810 -0.8121  1.1540  1.8280
 3465TIP3   OH237317   8.326   4.028   1.941 -0.6429  0.0470 -0.0458
 3465TIP3    H137318   8.322   4.008   1.848 -1.6552  1.4362 -0.3364
 3465TIP3    H237319   8.320   4.123   1.945  1.5600  0.2095  1.3466
 3466TIP3   OH237320   4.396   3.247   1.571 -0.0013 -0.3138 -0.1304
 3466TIP3    H137321   4.381   3.275   1.662  0.3478  1.1914 -0.5001
 3466TIP3    H237322   4.490   3.262   1.557  0.5849 -3.1765  0.0663
 3467TIP3   OH237323   0.534   2.876   5.587 -0.0076 -0.1878  0.4298
 3467TIP3    H137324   0.508   2.879   5.679 -1.4281 -0.0454  0.0367
 3467TIP3    H237325   0.458   2.908   5.539  1.2036  1.1412 -0.7209
 3468TIP3   OH237326   5.433   3.672   1.595 -0.0339 -0.7786 -0.1515
 3468TIP3    H137327   5.470   3.638   1.677  2.6496  0.4548 -0.7060
 3468TIP3    H237328   5.449   3.603   1.531  0.2918 -0.7203 -0.1393
 3469TIP3   OH237329   5.347   7.242   5.342  0.4856  0.0661  0.1676
 3469TIP3    H137330   5.333   7.327   5.383  0.2491 -0.1530  0.5425
 3469TIP3    H237331   5.273   7.232   5.282 -0.8711 -0.9624  1.9380
 3470TIP3   OH237332   4.905   1.475   5.900  0.2452 -0.7153 -0.5894
 3470TIP3    H137333   4.905   1.380   5.911  1.4508 -0.5692  0.9815
 3470TIP3    H237334   4.981   1.493   5.845  1.2759 -0.5277  0.8497
 3471TIP3   OH237335   4.063   6.144   5.371  0.6409 -0.0832 -1.3172
 3471TIP3    H137336   3.990   6.157   5.431  2.3709  0.4073  0.8301
 3471TIP3    H237337   4.051   6.056   5.336 -1.6795  0.4824 -2.1545
 3472TIP3   OH237338   2.789   0.381   5.605  0.2458 -0.1227 -0.2308
 3472TIP3    H137339   2.721   0.433   5.564 -0.1887  0.6810  1.4026
 3472TIP3    H237340   2.743   0.305   5.641  0.4487 -0.3191 -0.3855
 3473TIP3   OH237341   6.883   6.933   4.836  0.2469 -0.1418 -0.5184
 3473TIP3    H137342   6.946   6.864   4.817  1.5134  0.9961 -0.5858
 3473TIP3    H237343   6.896   6.998   4.767 -0.2873  0.5940  0.0519
 3474TIP3   OH237344   4.929   1.589   1.487 -0.0961 -0.3599  0.3141
 3474TIP3    H137345   4.965   1.665   1.533  0.1492 -0.1666 -0.1863
 3474TIP3    H237346   4.836   1.589   1.508 -0.1503  0.2550  0.0709
 3475TIP3   OH237347   7.719   4.555   0.246 -0.2296  0.1859 -0.3668
 3475TIP3    H137348   7.775   4.524   0.175 -0.3176 -0.8509 -0.0027
 3475TIP3    H237349   7.630   4.534   0.217 -0.3111  0.3191 -0.2171
 3476TIP3   OH237350   1.069   0.621   5.653  0.2095  0.2972  0.7561
 3476TIP3    H137351   1.102   0.532   5.641 -0.2345  0.4432 -2.6612
 3476TIP3    H237352   1.123   0.675   5.596  1.4791  2.6191  3.8771
 3477TIP3   OH237353   0.967   2.818   0.865 -0.1817 -0.0397  0.5540
 3477TIP3    H137354   1.012   2.790   0.785 -0.9476 -1.5114  0.6178
 3477TIP3    H237355   0.958   2.913   0.854  0.8844 -0.0328 -0.4968
 3478TIP3   OH237356   6.925   5.557   0.954  0.0965 -0.1828 -0.0388
 3478TIP3    H137357   6.967   5.643   0.955  1.0346 -0.6236 -0.4156
 3478TIP3    H237358   6.884   5.552   0.868 -0.3373  0.0576  0.1500
 3479TIP3   OH237359   1.292   1.782   1.026  0.3688 -0.0926  0.2540
 3479TIP3    H137360   1.227   1.837   1.071 -0.6940 -2.8525  2.4742
 3479TIP3    H237361   1.369   1.784   1.083  0.8742  0.2812 -0.4391
 3480TIP3   OH237362   0.853   3.712   5.474  0.0349  0.3453  0.3462
 3480TIP3    H137363   0.940   3.727   5.509  0.4354 -0.1597 -0.4102
 3480TIP3    H237364   0.859   3.737   5.381 -0.0375 -1.6588 -0.2427
 3481TIP3   OH237365   6.564   2.561   1.366 -0.2430  0.5037 -0.2372
 3481TIP3    H137366   6.595   2.577   1.277 -1.7034  1.1391 -0.6653
 3481TIP3    H237367   6.629   2.601   1.422  0.7796 -0.0478 -1.0033
 3482TIP3   OH237368   1.889   6.984   1.030 -0.7167  0.1661  0.5083
 3482TIP3    H137369   1.830   6.922   0.987 -0.5189  0.2497  0.1166
 3482TIP3    H237370   1.972   6.937   1.038  0.4543  1.4035 -2.7001
 3483TIP3   OH237371   2.130   6.559   1.333 -0.5919 -0.5673  0.1410
 3483TIP3    H137372   2.063   6.534   1.396 -2.4603  1.7901 -0.7469
 3483TIP3    H237373   2.145   6.653   1.349 -1.4698  0.2447 -3.0738
 3484TIP3   OH237374   5.734   3.187   6.195 -0.7328  0.1505  0.3894
 3484TIP3    H137375   5.752   3.093   6.206 -0.1342  0.1651 -0.3680
 3484TIP3    H237376   5.820   3.229   6.201 -0.8707  0.5401 -0.2698
 3485TIP3   OH237377   5.491   8.159   1.512  0.1395 -0.3488 -0.0360
 3485TIP3    H137378   5.408   8.206   1.518 -0.0618 -0.8808  2.7478
 3485TIP3    H237379   5.465   8.067   1.499  0.3644 -0.2876 -0.9365
 3486TIP3   OH237380   0.158   2.802   1.531 -0.6617 -0.3615 -0.0216
 3486TIP3    H137381   0.133   2.721   1.486  1.7253 -1.1860 -0.0065
 3486TIP3    H237382   0.146   2.784   1.624 -0.7475 -0.4834 -0.0571
 3487TIP3   OH237383   8.501   6.378   0.035 -0.6713  0.2040 -0.8147
 3487TIP3    H137384   8.496   6.466   0.073 -0.7635  0.8283 -2.1796
 3487TIP3    H237385   0.035   6.386   7.040  1.8260 -1.7209  1.3760
 3488TIP3   OH237386   5.851   0.745   6.492 -0.2521  0.1574  0.4049
 3488TIP3    H137387   5.922   0.740   6.429 -0.7224 -0.1180 -0.1031
 3488TIP3    H237388   5.881   0.811   6.556 -0.1083  1.0218 -0.5243
 3489TIP3   OH237389   3.080   2.726   1.012 -0.0788  0.1112 -0.5796
 3489TIP3    H137390   3.081   2.724   0.916  0.4192  0.6907 -0.5884
 3489TIP3    H237391   3.169   2.751   1.037 -0.7588  2.1280 -0.0354
 3490TIP3   OH237392   5.219   4.287   5.782 -0.2697  0.7711 -0.7459
 3490TIP3    H137393   5.228   4.266   5.689  2.0944  1.2419 -0.6814
 3490TIP3    H237394   5.284   4.355   5.797  0.0498  0.0446  1.4591
 3491TIP3   OH237395   5.559   4.982   0.844  0.1462 -0.2944  0.1695
 3491TIP3    H137396   5.536   5.051   0.783 -0.0103  1.4511  2.0952
 3491TIP3    H237397   5.476   4.949   0.877  0.1935  1.1582  1.9088
 3492TIP3   OH237398   8.331   2.257   1.275  0.3384 -0.0924  0.9026
 3492TIP3    H137399   8.305   2.206   1.351 -1.4280 -0.9764 -0.2465
 3492TIP3    H237400   8.379   2.196   1.220 -3.9762 -1.5218 -1.7131
 3493TIP3   OH237401   5.158   3.390   6.158  0.4507 -0.4304  0.5275
 3493TIP3    H137402   5.230   3.415   6.099  1.3473 -1.2493  1.2391
 3493TIP3    H237403   5.112   3.320   6.111 -1.1282  1.4001 -0.7919
 3494TIP3   OH237404   4.513   7.711   1.360 -0.0656 -0.0207  0.3746
 3494TIP3    H137405   4.467   7.770   1.420  0.5129  0.5557  0.2627
 3494TIP3    H237406   4.504   7.624   1.400  0.1817  0.3345  1.2230
 3495TIP3   OH237407   1.157   5.105   1.578 -0.8721 -0.7935 -0.2424
 3495TIP3    H137408   1.185   5.095   1.669 -0.5587 -0.6679 -0.3227
 3495TIP3    H237409   1.087   5.041   1.567 -0.4052 -1.3320 -0.1214
 3496TIP3   OH237410   5.273   5.142   5.573 -0.5550  0.5016  0.0418
 3496TIP3    H137411   5.239   5.180   5.492 -0.5272  2.1505  0.7676
 3496TIP3    H237412   5.358   5.185   5.585 -0.5792  0.3051  0.9619
 3497TIP3   OH237413   3.761   4.762   1.156  0.4485  0.3581  0.4422
 3497TIP3    H137414   3.767   4.678   1.201  0.2698 -0.2794 -0.6872
 3497TIP3    H237415   3.678   4.799   1.185  0.7085  0.3188  1.2364
 3498TIP3   OH237416   5.324   3.138   1.046  0.1699 -0.0340 -0.2513
 3498TIP3    H137417   5.250   3.181   1.004  1.5064  0.0783 -2.6292
 3498TIP3    H237418   5.297   3.047   1.056 -0.1865 -0.0648 -1.4050
 3499TIP3   OH237419   0.627   5.184   1.996 -0.1401 -0.0327  0.5566
 3499TIP3    H137420   0.647   5.108   2.050 -0.6481 -1.6926 -1.5008
 3499TIP3    H237421   0.688   5.251   2.027  1.2997 -1.6950  1.4875
 3500TIP3   OH237422   4.964   0.830   0.838 -0.5672  0.4232 -0.0634
 3500TIP3    H137423   5.005   0.888   0.902 -1.3462  1.0995 -0.1556
 3500TIP3    H237424   4.910   0.770   0.890 -1.2410  1.0057 -0.0649
 3501TIP3   OH237425   7.746   8.310   1.782 -0.4398  0.4033  0.1468
 3501TIP3    H137426   7.685   8.335   1.714 -0.2710  1.1774  0.2757
 3501TIP3    H237427   7.795   8.236   1.745 -2.1031 -0.9081  0.4106
 3502TIP3   OH237428   6.807   1.285   5.879 -0.3169 -0.0483  0.0194
 3502TIP3    H137429   6.845   1.336   5.808 -0.8024  0.0064 -0.1962
 3502TIP3    H237430   6.716   1.313   5.884 -0.2601  0.0239  0.7308
 3503TIP3   OH237431   6.074   2.457   5.708 -0.5763  0.3228  0.3293
 3503TIP3    H137432   5.990   2.498   5.688 -0.8855 -0.9721 -1.1348
 3503TIP3    H237433   6.059   2.364   5.695  0.7837 -0.0457  1.2313
 3504TIP3   OH237434   7.407   1.203   1.413 -0.2611 -0.0370 -0.6752
 3504TIP3    H137435   7.357   1.144   1.470  1.1358  1.0023  1.8219
 3504TIP3    H237436   7.479   1.150   1.380 -0.5641 -0.4315 -0.7022
 3505TIP3   OH237437   2.765   1.389   0.479 -0.2477 -0.3205  0.0641
 3505TIP3    H137438   2.809   1.307   0.457 -0.0238 -0.0611 -0.4819
 3505TIP3    H237439   2.805   1.416   0.561 -0.5572 -0.9254  0.4224
 3506TIP3   OH237440   6.698   3.517   6.322  0.5801 -0.5715 -0.5149
 3506TIP3    H137441   6.740   3.556   6.245 -0.7229  2.3245  0.1207
 3506TIP3    H237442   6.767   3.463   6.361  1.8841 -0.5392 -2.5961
 3507TIP3   OH237443   3.001   0.560   0.372 -0.1968  0.0938  0.9068
 3507TIP3    H137444   2.954   0.597   0.447  0.0302  0.3405  0.9271
 3507TIP3    H237445   2.986   0.623   0.301  1.7706  1.2375  1.4353
 3508TIP3   OH237446   5.309   4.964   0.951 -0.0258 -0.4771  0.0174
 3508TIP3    H137447   5.284   4.996   1.038  1.8775 -0.3317  0.5545
 3508TIP3    H237448   5.257   5.016   0.890 -1.0144 -0.2277  1.0415
 3509TIP3   OH237449   1.186   3.456   6.327  0.0930 -0.0754  0.5435
 3509TIP3    H137450   1.146   3.431   6.243 -0.8500  0.3733  0.8549
 3509TIP3    H237451   1.209   3.372   6.368 -0.0629 -0.3198  0.1387
 3510TIP3   OH237452   0.724   6.172   0.244 -0.5105 -0.5306 -0.2090
 3510TIP3    H137453   0.669   6.245   0.274 -2.1699 -1.5542 -0.6447
 3510TIP3    H237454   0.673   6.094   0.263  1.4531 -1.6736  0.7187
 3511TIP3   OH237455   4.269   1.953   0.152 -0.0090 -0.4255 -0.2885
 3511TIP3    H137456   4.344   1.988   0.200 -0.0002 -0.2012 -0.4596
 3511TIP3    H237457   4.258   1.864   0.184 -1.4891  0.4489  1.9205
 3512TIP3   OH237458   5.325   6.474   0.851  0.0938 -0.0881  0.3331
 3512TIP3    H137459   5.310   6.411   0.780  0.3351  0.0893  0.1271
 3512TIP3    H237460   5.237   6.499   0.878 -0.0419  1.6319 -1.4818
 3513TIP3   OH237461   3.775   4.428   4.905  0.1087  0.5571 -0.0947
 3513TIP3    H137462   3.858   4.438   4.859 -0.2496  0.3055 -0.8133
 3513TIP3    H237463   3.781   4.343   4.948 -0.1415  0.1166 -0.9218
 3514TIP3   OH237464   1.901   2.178   6.172  0.2032 -0.4704 -0.0293
 3514TIP3    H137465   1.963   2.237   6.129  0.6461 -0.6240  0.3805
 3514TIP3    H237466   1.870   2.228   6.248 -1.4462  0.2435 -1.1168
 3515TIP3   OH237467   0.407   7.851   6.703  0.0793  0.0553  0.3384
 3515TIP3    H137468   0.334   7.824   6.758 -0.6243  1.4184  0.1262
 3515TIP3    H237469   0.410   7.946   6.712 -0.1661  0.3676 -2.0642
 3516TIP3   OH237470   8.238   4.993   6.706 -0.3823 -0.0189  0.2317
 3516TIP3    H137471   8.211   4.916   6.655 -1.0661  1.0730 -1.1046
 3516TIP3    H237472   8.219   4.969   6.796  0.6795 -1.9434  0.0127
 3517TIP3   OH237473   7.323   7.990   5.574 -0.5659 -0.5158 -0.5034
 3517TIP3    H137474   7.285   8.015   5.658 -0.6705  0.1103 -0.7326
 3517TIP3    H237475   7.249   7.965   5.520 -0.4536 -1.4241 -0.2465
 3518TIP3   OH237476   1.911   1.671   5.511 -0.6040 -0.3283  0.0060
 3518TIP3    H137477   1.970   1.658   5.586 -1.1322  0.5551  0.5896
 3518TIP3    H237478   1.937   1.603   5.449  1.5123  0.4735 -0.0686
 3519TIP3   OH237479   0.931   1.030   5.875  1.0635  0.8475 -0.3381
 3519TIP3    H137480   1.025   1.042   5.859  0.7291  2.5948 -1.3697
 3519TIP3    H237481   0.893   1.117   5.857 -0.6765  0.3358  0.6523
 3520TIP3   OH237482   0.822   2.623   6.782  0.2141  0.1804  0.0017
 3520TIP3    H137483   0.824   2.607   6.876 -0.7193 -0.5752 -0.0940
 3520TIP3    H237484   0.819   2.536   6.743  1.3891  0.4583 -0.7732
 3521TIP3   OH237485   5.086   0.287   4.707 -0.5746  0.2168  0.7092
 3521TIP3    H137486   5.078   0.220   4.639 -0.0187  1.0660 -0.2212
 3521TIP3    H237487   4.996   0.302   4.736 -0.9568  0.5786 -0.5908
 3522TIP3   OH237488   0.391   6.006   0.496  0.2578 -0.1232  0.0185
 3522TIP3    H137489   0.308   5.987   0.541 -0.0171  0.2244 -0.3378
 3522TIP3    H237490   0.383   6.097   0.468  1.2677  0.3156  1.0618
 3523TIP3   OH237491   4.003   6.654   1.917  0.6230 -0.4054 -0.1082
 3523TIP3    H137492   4.098   6.655   1.932  0.7054  0.2161 -0.6222
 3523TIP3    H237493   3.965   6.696   1.994  0.8374  0.2041 -0.3307
 3524TIP3   OH237494   3.949   4.154   0.907 -0.3089  0.5957  0.0710
 3524TIP3    H137495   4.034   4.165   0.949 -0.1217  3.0111 -0.7941
 3524TIP3    H237496   3.907   4.083   0.956  2.1042 -0.5326  0.6287
 3525TIP3   OH237497   3.119   2.740   6.084 -0.1467  0.5267  0.1583
 3525TIP3    H137498   3.094   2.680   6.154 -0.4002  1.0921  0.5654
 3525TIP3    H237499   3.152   2.684   6.014 -2.2028 -0.2381 -0.2604
 3526TIP3   OH237500   3.221   5.170   6.381 -0.4534  0.1639  0.0918
 3526TIP3    H137501   3.279   5.094   6.382 -1.4208 -0.5917  0.3520
 3526TIP3    H237502   3.217   5.195   6.289 -0.8218 -0.6542 -0.1234
 3527TIP3   OH237503   5.770   6.105   6.392 -0.6806 -0.6656 -0.1919
 3527TIP3    H137504   5.679   6.087   6.369 -0.7526 -0.6344  0.0633
 3527TIP3    H237505   5.821   6.067   6.321 -0.8694 -1.1381 -0.0798
 3528TIP3   OH237506   4.875   3.240   0.430  0.2007 -0.5567 -0.0115
 3528TIP3    H137507   4.826   3.287   0.497  1.0223 -1.9440  1.6516
 3528TIP3    H237508   4.829   3.157   0.420 -0.9272  0.2626 -2.5207
 3529TIP3   OH237509   4.430   3.549   1.803  0.2666  0.0929  0.3074
 3529TIP3    H137510   4.360   3.486   1.823  0.0082  0.2292 -0.1631
 3529TIP3    H237511   4.446   3.593   1.886 -2.4477  2.3369 -0.1998
 3530TIP3   OH237512   0.484   3.907   1.078 -0.3279 -0.0985 -0.5998
 3530TIP3    H137513   0.542   3.907   1.154  0.5172 -0.7454 -1.2324
 3530TIP3    H237514   0.525   3.968   1.017 -0.3857 -0.4611 -0.9996
 3531TIP3   OH237515   2.403   5.801   6.399  0.2920  0.1856  0.3366
 3531TIP3    H137516   2.326   5.770   6.352  0.5890  1.7415 -1.2983
 3531TIP3    H237517   2.394   5.896   6.402  2.5874  0.5350 -0.8580
 3532TIP3   OH237518   7.456   4.111   6.971  0.0384  0.0927 -0.5244
 3532TIP3    H137519   7.447   4.016   6.967 -2.7250  0.2858 -0.9168
 3532TIP3    H237520   7.426   4.133   7.059  1.7339  0.5564 -0.0334
 3533TIP3   OH237521   3.056   8.455   1.499  0.3968 -0.6819  0.2744
 3533TIP3    H137522   2.996   8.392   1.539 -0.4084  0.1649  0.4332
 3533TIP3    H237523   2.999   8.518   1.454  1.1886 -0.1601 -0.0297
 3534TIP3   OH237524   3.521   4.155   5.996 -0.0997 -0.0127  0.2063
 3534TIP3    H137525   3.486   4.087   5.938 -0.2348 -2.2484  2.7372
 3534TIP3    H237526   3.461   4.228   5.985 -1.4790 -1.2217 -0.7266
 3535TIP3   OH237527   0.372   5.796   6.426 -0.5108  0.3290  0.0123
 3535TIP3    H137528   0.340   5.884   6.408  0.5239  0.4328 -1.4870
 3535TIP3    H237529   0.349   5.746   6.348  2.0667  0.1804 -0.7279
 3536TIP3   OH237530   0.882   6.989   6.640  0.2891  0.5121  0.3039
 3536TIP3    H137531   0.850   6.941   6.564  1.8649  1.7320 -1.2223
 3536TIP3    H237532   0.879   6.926   6.712 -2.7581 -0.2215 -0.3377
 3537TIP3   OH237533   0.704   5.550   0.082  0.0439 -0.0806 -0.2470
 3537TIP3    H137534   0.759   5.552   0.161 -0.5253 -0.0685  0.1569
 3537TIP3    H237535   0.732   5.472   0.035  0.2079 -0.2349  0.1064
 3538TIP3   OH237536   3.048   1.932   0.160  0.1942  0.0756  0.3242
 3538TIP3    H137537   3.031   1.896   0.247 -1.9484 -0.2364 -0.1781
 3538TIP3    H237538   3.005   2.017   0.160  1.1171  0.5612 -0.1002
 3539TIP3   OH237539   0.951   8.397   0.442 -0.0463  0.3313  0.3404
 3539TIP3    H137540   0.973   8.478   0.489  0.7220 -0.1978  0.9014
 3539TIP3    H237541   0.959   8.328   0.508  1.4051 -0.4712 -0.6396
 3540TIP3   OH237542   4.207   5.511   1.085  0.2250 -0.2024 -0.2027
 3540TIP3    H137543   4.150   5.532   1.159  0.4625 -1.2248  0.2853
 3540TIP3    H237544   4.150   5.467   1.023  0.1531  0.1390 -0.3806
 3541TIP3   OH237545   0.085   5.193   0.384  0.0694  0.3130  0.2595
 3541TIP3    H137546   0.028   5.117   0.380 -0.4947  0.7668 -0.7328
 3541TIP3    H237547   0.172   5.157   0.405  0.0672 -0.7711 -1.4074
 3542TIP3   OH237548   0.453   4.278   6.527 -0.4379  0.3926  0.1890
 3542TIP3    H137549   0.416   4.250   6.443 -1.1107 -1.9318  1.1762
 3542TIP3    H237550   0.432   4.371   6.533  0.5928  0.9232 -2.6715
 3543TIP3   OH237551   0.830   0.967   0.048  0.4353  0.0545 -0.1110
 3543TIP3    H137552   0.836   1.034   0.116 -1.5566 -0.1763  0.3515
 3543TIP3    H237553   0.774   1.004   7.052 -1.1966 -1.3153  0.4273
 3544TIP3   OH237554   3.125   3.990   0.249 -0.3025  1.0918 -0.6264
 3544TIP3    H137555   3.196   4.022   0.192 -0.4128 -0.2198 -1.5651
 3544TIP3    H237556   3.123   3.896   0.232 -1.1224  0.8523  0.7140
 3545TIP3   OH237557   1.222   1.685   5.899  0.2595 -0.2864 -0.9166
 3545TIP3    H137558   1.239   1.766   5.948  0.1261 -0.4376 -0.6166
 3545TIP3    H237559   1.286   1.686   5.828  2.1689 -1.2909  0.6909
 3546TIP3   OH237560   2.678   0.030   0.672  0.5624 -0.3571  0.0161
 3546TIP3    H137561   2.659   0.104   0.614 -0.5358  0.0716  0.8755
 3546TIP3    H237562   2.599   8.511   0.668  0.7819 -0.7212  0.5193
 3547TIP3   OH237563   1.227   3.761   5.888  0.5689 -0.0691  0.1120
 3547TIP3    H137564   1.252   3.691   5.948  2.1497  0.9871  0.7279
 3547TIP3    H237565   1.259   3.732   5.803  1.7167  0.1356  0.4622
 3548TIP3   OH237566   6.856   7.860   0.187 -0.0623  0.2188  0.3794
 3548TIP3    H137567   6.836   7.934   0.243 -3.8080 -0.3231 -0.0143
 3548TIP3    H237568   6.850   7.784   0.244 -0.4994 -0.0917 -0.0791
 3549TIP3   OH237569   3.863   1.597   0.326 -0.2733 -0.1151 -0.1652
 3549TIP3    H137570   3.850   1.628   0.415 -1.4223  0.4921 -0.5125
 3549TIP3    H237571   3.953   1.620   0.305 -0.0416 -0.1369  0.7895
 3550TIP3   OH237572   1.228   5.642   1.119  0.5511  0.1752  0.4468
 3550TIP3    H137573   1.211   5.599   1.034 -1.3922  0.0865  0.8284
 3550TIP3    H237574   1.195   5.580   1.184  2.5345 -0.0058  1.3500
 3551TIP3   OH237575   0.464   6.457   0.207 -0.3746 -0.3557  0.0550
 3551TIP3    H137576   0.483   6.524   0.272  1.1396  0.1790 -0.8861
 3551TIP3    H237577   0.442   6.506   0.127 -1.4034 -0.9993 -0.0808
 3552TIP3   OH237578   2.475   7.946   6.413 -0.0043  0.7293 -0.4167
 3552TIP3    H137579   2.383   7.960   6.433 -0.0063 -0.8818  0.9265
 3552TIP3    H237580   2.515   7.924   6.498  1.7153  1.7932 -0.8835
 3553TIP3   OH237581   8.094   1.395   1.204  0.7845 -0.1116  0.2990
 3553TIP3    H137582   8.024   1.391   1.140 -1.1043 -0.6555  2.2810
 3553TIP3    H237583   8.168   1.351   1.161 -0.5341 -0.8824 -1.3102
 3554TIP3   OH237584   6.492   2.004   0.869  0.0401 -0.1179 -0.3063
 3554TIP3    H137585   6.482   2.062   0.794 -0.5060  1.7221  1.1097
 3554TIP3    H237586   6.560   2.046   0.923 -0.0560 -1.0218  0.5528
 3555TIP3   OH237587   7.622   5.799   0.644 -0.1708 -0.0313  0.3543
 3555TIP3    H137588   7.654   5.888   0.659  1.0541 -0.5536  1.0851
 3555TIP3    H237589   7.570   5.778   0.722 -0.4701  0.0531  0.1767
 3556TIP3   OH237590   3.956   7.562   1.155 -0.2099 -0.2308  0.2191
 3556TIP3    H137591   4.044   7.596   1.137  0.4234 -0.4859  2.5615
 3556TIP3    H237592   3.925   7.531   1.070  1.3673  1.1727 -0.9497
 3557TIP3   OH237593   1.024   4.576   0.541 -0.0694  0.1822 -0.5581
 3557TIP3    H137594   1.111   4.597   0.505  0.5218  2.2702  1.8230
 3557TIP3    H237595   0.964   4.630   0.491  0.7793  3.3455  1.5733
 3558TIP3   OH237596   3.508   7.572   6.709 -0.3013 -0.1507 -0.4779
 3558TIP3    H137597   3.571   7.644   6.719 -0.2262  0.3046 -3.5169
 3558TIP3    H237598   3.548   7.500   6.759  0.0984  1.5258  1.8232
 3559TIP3   OH237599   3.086   2.959   6.397 -0.2761  0.3508 -0.2905
 3559TIP3    H137600   3.040   2.897   6.453  0.2261  0.2081 -0.0235
 3559TIP3    H237601   3.056   3.045   6.426  0.0114  0.2788  0.2335
 3560TIP3   OH237602   6.853   7.797   4.894 -0.4260 -0.6899 -0.1994
 3560TIP3    H137603   6.758   7.784   4.893 -0.7489  1.2782  0.1100
 3560TIP3    H237604   6.866   7.883   4.855  1.3079 -1.2090 -0.8538
 3561TIP3   OH237605   0.954   0.304   1.766  0.9577  0.0452  0.4230
 3561TIP3    H137606   1.027   0.339   1.715  0.3439  0.5543 -0.1233
 3561TIP3    H237607   0.958   0.210   1.751  1.1641  0.1246 -0.0633
 3562TIP3   OH237608   1.707   1.460   0.713  0.0876  0.0986 -0.2068
 3562TIP3    H137609   1.657   1.417   0.644 -1.0898  1.3135 -0.1557
 3562TIP3    H237610   1.691   1.407   0.791 -0.2900 -0.1148 -0.4282
 3563TIP3   OH237611   5.806   5.917   4.990 -0.1840 -0.2431  0.0814
 3563TIP3    H137612   5.816   6.012   4.995 -0.2272 -0.2905  1.7841
 3563TIP3    H237613   5.896   5.883   4.993 -0.1425 -0.2478 -1.0819
 3564TIP3   OH237614   0.378   5.292   0.641 -0.3340  0.2461 -0.6523
 3564TIP3    H137615   0.400   5.385   0.639 -1.7840  0.5919 -2.1979
 3564TIP3    H237616   0.418   5.256   0.561  2.1589 -1.0122  0.9958
 3565TIP3   OH237617   4.788   3.540   6.172  0.0305 -0.7068 -0.6876
 3565TIP3    H137618   4.845   3.596   6.119 -2.5105  3.0610  0.1474
 3565TIP3    H237619   4.720   3.512   6.111 -1.4810  1.5095 -0.1379
 3566TIP3   OH237620   0.533   7.470   0.882 -0.2204  0.6731  0.0030
 3566TIP3    H137621   0.519   7.381   0.914  1.2120  0.2401 -0.4722
 3566TIP3    H237622   0.462   7.521   0.920 -1.8871 -0.9246 -0.7918
 3567TIP3   OH237623   6.671   6.068   1.429 -0.1134 -0.7149  0.2005
 3567TIP3    H137624   6.662   6.004   1.500 -0.4716 -1.1485 -0.2236
 3567TIP3    H237625   6.641   6.021   1.351  0.9803 -0.4849 -0.3761
 3568TIP3   OH237626   0.790   1.498   7.008 -0.6344  0.3471  0.5254
 3568TIP3    H137627   0.749   1.516   6.923  0.0565 -1.3266 -0.2076
 3568TIP3    H237628   0.876   1.463   6.986  0.0170  0.9803  1.9690
 3569TIP3   OH237629   0.993   8.258   0.676  0.7890  0.0425  0.6102
 3569TIP3    H137630   1.059   8.305   0.725 -0.2277  0.0354  2.0505
 3569TIP3    H237631   1.037   8.178   0.646  1.2952 -0.2520  2.0466
 3570TIP3   OH237632   1.778   3.111   1.277 -0.3262 -0.0439 -0.3071
 3570TIP3    H137633   1.707   3.169   1.250 -0.4020  0.2032  0.4059
 3570TIP3    H237634   1.811   3.149   1.358 -0.1815 -0.8369  0.0178
 3571TIP3   OH237635   2.259   2.674   5.441 -0.1823 -0.5309 -0.3074
 3571TIP3    H137636   2.211   2.666   5.359  1.4312 -3.7928 -1.0958
 3571TIP3    H237637   2.250   2.589   5.483  2.5681 -0.4069  0.7680
 3572TIP3   OH237638   3.629   5.892   0.082  0.4585 -0.0570  0.1917
 3572TIP3    H137639   3.576   5.877   0.004 -0.7485 -1.8220  1.2588
 3572TIP3    H237640   3.567   5.884   0.155  1.9158 -0.7510  1.4235
 3573TIP3   OH237641   1.705   6.301   6.678 -0.0457  0.1532  0.6044
 3573TIP3    H137642   1.630   6.333   6.728  1.3864  1.1323  2.2572
 3573TIP3    H237643   1.739   6.227   6.729  0.3176 -0.0697  0.0586
 3574TIP3   OH237644   7.673   3.402   6.457 -0.5089  0.4031 -0.0537
 3574TIP3    H137645   7.709   3.351   6.385 -0.1477 -0.6790  0.8510
 3574TIP3    H237646   7.578   3.396   6.446 -0.5103 -1.4152  0.6257
 3575TIP3   OH237647   6.225   3.359   6.274  0.6446 -0.2209  0.0440
 3575TIP3    H137648   6.238   3.387   6.365  2.8422 -1.6362  0.2389
 3575TIP3    H237649   6.312   3.362   6.235 -0.1541 -0.3119 -1.8402
 3576TIP3   OH237650   5.818   2.501   5.645  0.4117  0.4705  0.3080
 3576TIP3    H137651   5.795   2.588   5.677 -0.9922  0.9592 -1.7753
 3576TIP3    H237652   5.778   2.441   5.708  0.4063  1.3302  1.1410
 3577TIP3   OH237653   4.081   2.260   0.764  0.6645 -0.2515  0.0273
 3577TIP3    H137654   4.010   2.226   0.709 -0.0271  2.7855 -1.2154
 3577TIP3    H237655   4.036   2.307   0.835  1.4370  0.3430  0.1384
 3578TIP3   OH237656   0.957   3.437   5.467 -0.1872 -0.2257  0.3909
 3578TIP3    H137657   0.904   3.516   5.479 -0.0170  0.0204 -0.4037
 3578TIP3    H237658   1.041   3.469   5.435  0.6467 -0.5695  2.1214
 3579TIP3   OH237659   3.270   6.901   0.854 -0.8589 -0.2876 -0.2816
 3579TIP3    H137660   3.346   6.955   0.834 -0.8167  0.1496  0.9426
 3579TIP3    H237661   3.291   6.814   0.819  0.1478 -0.1368 -0.0558
 3580TIP3   OH237662   6.062   3.050   1.417 -0.5261  0.4492  0.1599
 3580TIP3    H137663   6.098   3.065   1.329 -3.3560  0.6230 -1.0854
 3580TIP3    H237664   6.060   2.954   1.425  0.5730  0.4397  0.4340
 3581TIP3   OH237665   2.300   1.744   0.673  0.0745 -0.0598 -0.4334
 3581TIP3    H137666   2.272   1.744   0.765  0.0645  0.2113 -0.4360
 3581TIP3    H237667   2.228   1.786   0.626  1.5382  3.0731 -0.1075
 3582TIP3   OH237668   1.395   0.850   0.632 -0.7860 -0.5176  0.3376
 3582TIP3    H137669   1.393   0.830   0.725 -0.9194 -1.3877  0.1505
 3582TIP3    H237670   1.484   0.883   0.616 -1.2960  1.3502  1.1050
 3583TIP3   OH237671   5.209   7.843   1.724  0.1097 -0.4293 -0.2084
 3583TIP3    H137672   5.303   7.855   1.733  0.0138 -0.6195  1.4863
 3583TIP3    H237673   5.190   7.765   1.776 -0.7905 -1.2731 -1.7592
 3584TIP3   OH237674   6.265   4.295   6.332  0.4985 -0.5149 -0.2918
 3584TIP3    H137675   6.199   4.228   6.319  0.9288 -1.0071  0.0161
 3584TIP3    H237676   6.321   4.261   6.402 -0.4389  1.0478  1.3124
 3585TIP3   OH237677   4.557   5.366   1.862 -0.6342 -0.0033 -0.2528
 3585TIP3    H137678   4.618   5.361   1.936 -0.1443 -0.1050 -0.6597
 3585TIP3    H237679   4.559   5.278   1.824 -2.6981 -0.6672  1.0380
 3586TIP3   OH237680   5.238   3.186   1.805  0.0130 -0.5234  0.9770
 3586TIP3    H137681   5.303   3.130   1.763 -0.0481  0.6122 -0.7366
 3586TIP3    H237682   5.271   3.199   1.894  1.6547 -0.7294  0.4280
 3587TIP3   OH237683   6.275   3.833   5.976 -0.1656 -0.0162 -0.5106
 3587TIP3    H137684   6.229   3.896   6.031  0.3900  1.6310 -1.8468
 3587TIP3    H237685   6.364   3.868   5.970  0.7304 -2.0106  0.3031
 3588TIP3   OH237686   2.611   6.623   5.476 -0.5320 -0.3433 -0.0622
 3588TIP3    H137687   2.650   6.710   5.483 -2.8741  0.6733  1.8629
 3588TIP3    H237688   2.667   6.567   5.529  1.1403 -0.1304 -1.5212
 3589TIP3   OH237689   5.291   0.095   4.744  0.4501  0.3571  0.1257
 3589TIP3    H137690   5.224   0.043   4.789  0.5032  0.1973  0.0210
 3589TIP3    H237691   5.242   0.164   4.700  0.2211 -0.5036 -1.0014
 3590TIP3   OH237692   1.758   8.144   5.928  0.1779 -0.5742  0.7300
 3590TIP3    H137693   1.715   8.058   5.932  0.9349 -0.9979 -0.0453
 3590TIP3    H237694   1.850   8.124   5.912  0.2231  0.4006 -0.3375
 3591TIP3   OH237695   0.714   4.254   1.084 -0.0841  0.1068  0.2893
 3591TIP3    H137696   0.747   4.334   1.124 -0.3618  0.8128 -0.8519
 3591TIP3    H237697   0.627   4.243   1.122 -1.6202  2.4285 -2.1714
 3592TIP3   OH237698   4.516   1.313   5.541 -0.0508  0.3821  0.2071
 3592TIP3    H137699   4.541   1.358   5.622 -1.3529 -0.3879  1.0699
 3592TIP3    H237700   4.502   1.384   5.478  0.6335  1.0155  0.7367
 3593TIP3   OH237701   1.493   3.784   0.633 -0.6504  0.5232  0.6090
 3593TIP3    H137702   1.417   3.818   0.680  0.3309 -1.6931  4.2054
 3593TIP3    H237703   1.471   3.693   0.614  1.6834 -0.8388  3.6662
 3594TIP3   OH237704   6.761   0.224   6.934 -0.1934  0.1818 -0.4657
 3594TIP3    H137705   6.822   0.274   6.988 -0.1114  0.0710 -0.4556
 3594TIP3    H237706   6.766   0.135   6.969  1.8160 -0.5237 -2.2874
 3595TIP3   OH237707   8.244   5.594   5.608 -0.0384  0.0640 -0.0407
 3595TIP3    H137708   8.175   5.657   5.630 -0.5821 -0.1543 -1.0597
 3595TIP3    H237709   8.282   5.627   5.526  0.2522 -0.4704 -0.1256
 3596TIP3   OH237710   2.177   3.616   6.644 -0.0881  0.1554  0.6149
 3596TIP3    H137711   2.232   3.647   6.716 -0.2857 -1.4334  1.4962
 3596TIP3    H237712   2.089   3.612   6.682 -0.3562  0.1931  0.0027
 3597TIP3   OH237713   8.204   0.917   0.908  0.0608 -0.5061 -0.1854
 3597TIP3    H137714   8.299   0.904   0.904  0.2763 -0.3567  2.5191
 3597TIP3    H237715   8.186   0.929   1.001 -2.4164  1.0511 -0.7780
 3598TIP3   OH237716   6.593   0.042   6.618  0.4202 -0.0124  0.0235
 3598TIP3    H137717   6.504   0.009   6.615  0.7081 -0.7644 -0.4878
 3598TIP3    H237718   6.639   8.517   6.677  0.0669  1.7107  2.1740
 3599TIP3   OH237719   2.437   7.777   1.601 -0.1757 -0.0145  0.4787
 3599TIP3    H137720   2.376   7.790   1.673 -0.2636 -2.2426  0.8679
 3599TIP3    H237721   2.500   7.849   1.609 -2.2642  1.9180  0.5000
 3600TIP3   OH237722   2.559   3.391   0.506 -0.0855 -0.4061 -0.0323
 3600TIP3    H137723   2.490   3.327   0.522 -1.4853  1.1616  0.4001
 3600TIP3    H237724   2.523   3.474   0.537  1.5002  0.6902 -0.9874
 3601TIP3   OH237725   8.194   5.870   5.422 -0.3135 -0.1353 -0.3963
 3601TIP3    H137726   8.127   5.809   5.389 -1.2387 -0.6785  2.2601
 3601TIP3    H237727   8.273   5.847   5.374 -1.1706 -1.9612 -1.0247
 3602TIP3   OH237728   6.608   3.409   1.832 -0.2845 -0.1410 -0.1784
 3602TIP3    H137729   6.597   3.329   1.780 -1.3561  0.3638 -0.7728
 3602TIP3    H237730   6.566   3.389   1.916  1.3804 -0.9301  0.5176
 3603TIP3   OH237731   7.849   6.197   6.141  0.3361  0.0977  0.0959
 3603TIP3    H137732   7.756   6.192   6.163 -0.0221  0.9672 -1.1142
 3603TIP3    H237733   7.879   6.106   6.148 -0.5845 -0.1911  0.5478
 3604TIP3   OH237734   5.738   5.846   6.728  0.5401 -0.0920  0.4732
 3604TIP3    H137735   5.799   5.917   6.706  0.9653  0.1678  2.3454
 3604TIP3    H237736   5.751   5.781   6.658 -0.0229  1.7044 -1.4204
 3605TIP3   OH237737   3.904   7.515   5.597  0.2972 -0.0844  0.0398
 3605TIP3    H137738   3.879   7.516   5.504 -0.1928  0.3716  0.1693
 3605TIP3    H237739   3.911   7.423   5.620  1.2281 -0.2069 -0.6626
 3606TIP3   OH237740   3.320   5.510   5.861  0.2077 -0.6484 -0.3112
 3606TIP3    H137741   3.349   5.600   5.871 -1.1374 -0.2009 -0.2158
 3606TIP3    H237742   3.401   5.459   5.850  1.0536  0.3996  0.8358
 3607TIP3   OH237743   0.401   0.905   7.064  0.4604  0.2956 -0.2956
 3607TIP3    H137744   0.419   0.997   0.012  2.8014 -0.3519  0.9946
 3607TIP3    H237745   0.478   0.858   0.025 -0.5127 -2.1030 -1.2197
 3608TIP3   OH237746   7.461   0.223   0.283 -0.4440 -0.4136  0.3620
 3608TIP3    H137747   7.551   0.206   0.254  0.0282  0.9527  0.9289
 3608TIP3    H237748   7.464   0.212   0.378 -0.7459  0.1019  0.4380
 3609TIP3   OH237749   2.315   7.646   6.991  0.4076  0.2066  0.3952
 3609TIP3    H137750   2.220   7.654   7.001  0.5024 -0.2587  1.9571
 3609TIP3    H237751   2.350   7.730   7.022  0.5149  0.2715  0.0971
 3610TIP3   OH237752   7.969   1.044   6.564  0.6753  0.1243 -0.4911
 3610TIP3    H137753   7.907   1.086   6.624  0.7958  0.2651 -0.4653
 3610TIP3    H237754   7.966   0.951   6.588  1.4785  0.3194  0.4255
 3611TIP3   OH237755   3.950   7.263   1.141 -0.3461 -0.6218 -0.5463
 3611TIP3    H137756   3.916   7.328   1.080 -1.5373 -1.4739 -0.8445
 3611TIP3    H237757   4.040   7.290   1.159 -0.8215  1.1058 -0.6321
 3612TIP3   OH237758   6.589   1.944   1.300 -0.1764 -0.2981  0.3832
 3612TIP3    H137759   6.537   1.931   1.379  1.4016 -1.4795  1.2912
 3612TIP3    H237760   6.583   2.038   1.281  0.8784  0.3786  2.9968
 3613TIP3   OH237761   0.868   5.388   6.829 -0.3478  0.5094 -0.2176
 3613TIP3    H137762   0.810   5.457   6.798  1.0097  0.8316 -2.1944
 3613TIP3    H237763   0.956   5.424   6.821  0.2333  0.1573  3.0112
 3614TIP3   OH237764   5.424   5.736   0.719  0.7300  0.2884 -0.0407
 3614TIP3    H137765   5.425   5.748   0.625 -0.5755  1.5895  0.0829
 3614TIP3    H237766   5.332   5.723   0.741  1.2031 -2.1825  0.8326
 3615TIP3   OH237767   4.603   6.642   6.844 -0.3050  0.0401  0.4352
 3615TIP3    H137768   4.609   6.652   6.939 -1.5301  0.7588  0.4600
 3615TIP3    H237769   4.548   6.715   6.816  1.0393  0.5436 -0.9965
 3616TIP3   OH237770   7.712   6.878   6.702  0.3235 -0.3492  0.0842
 3616TIP3    H137771   7.664   6.957   6.680  1.1291  0.6896  1.8561
 3616TIP3    H237772   7.764   6.859   6.624 -1.3940 -0.3664 -1.1260
 3617TIP3   OH237773   6.775   3.847   0.312  0.2826  1.1239  0.0145
 3617TIP3    H137774   6.758   3.869   0.404 -2.5966 -1.0804  0.1447
 3617TIP3    H237775   6.688   3.839   0.273  1.3910  0.3274 -2.4988
 3618TIP3   OH237776   6.207   0.769   6.380  0.1418  0.3714  0.5665
 3618TIP3    H137777   6.243   0.856   6.398 -0.8007  0.6422  1.2379
 3618TIP3    H237778   6.119   0.786   6.346  0.4559 -0.2865 -0.6200
 3619TIP3   OH237779   3.784   3.264   1.140  0.0822  0.2540 -0.1577
 3619TIP3    H137780   3.695   3.296   1.125  0.1872  1.0941  0.8340
 3619TIP3    H237781   3.838   3.343   1.133  0.8612 -0.3608 -1.4696
 3620TIP3   OH237782   3.343   3.659   0.418 -0.9362  0.1214 -0.3957
 3620TIP3    H137783   3.408   3.717   0.379 -1.0472  0.2529 -0.3862
 3620TIP3    H237784   3.298   3.619   0.344 -1.1665  0.3934 -0.4054
 3621TIP3   OH237785   8.517   8.428   1.403  0.0317  0.2359 -0.2833
 3621TIP3    H137786   8.457   8.437   1.477  0.2695  0.0198 -0.0579
 3621TIP3    H237787   0.065   8.462   1.436  0.2372 -0.2161 -0.3198
 3622TIP3   OH237788   4.780   6.377   5.584  0.0666  0.6513  0.1841
 3622TIP3    H137789   4.745   6.372   5.495  0.5998 -0.2048  0.0044
 3622TIP3    H237790   4.865   6.421   5.574  0.0031  0.8006  0.3050
 3623TIP3   OH237791   1.870   3.884   1.156  0.0751 -0.0812  0.1015
 3623TIP3    H137792   1.829   3.952   1.210  0.3650  0.7355 -0.6691
 3623TIP3    H237793   1.957   3.872   1.194  0.6609  1.2219 -0.7390
 3624TIP3   OH237794   6.616   7.900   5.729  0.4166 -0.4641 -0.6290
 3624TIP3    H137795   6.598   7.823   5.675 -0.6700  0.5397 -1.7408
 3624TIP3    H237796   6.683   7.948   5.680 -1.7510  1.3060 -2.0371
 3625TIP3   OH237797   6.732   8.022   0.647  0.0148  0.3533  0.0121
 3625TIP3    H137798   6.680   8.072   0.710  0.1532  1.7485 -0.9326
 3625TIP3    H237799   6.814   8.005   0.692 -0.7091 -0.6225  1.0020
 3626TIP3   OH237800   7.028   2.995   0.022  0.4023  0.5391 -0.5137
 3626TIP3    H137801   6.940   2.958   0.026  0.8270 -0.4292  0.1304
 3626TIP3    H237802   7.014   3.090   0.016 -0.6674  0.4757  0.6963
 3627TIP3   OH237803   7.637   4.238   6.394 -0.0148  0.2925  0.2977
 3627TIP3    H137804   7.678   4.188   6.324 -0.2903  0.2152  0.1908
 3627TIP3    H237805   7.544   4.238   6.373 -0.2450 -0.6542  1.2343
 3628TIP3   OH237806   0.524   5.990   5.132  0.3194  0.3437 -0.5887
 3628TIP3    H137807   0.541   6.079   5.162 -0.1215  0.7608 -1.5552
 3628TIP3    H237808   0.449   5.998   5.073  0.3097 -0.6616 -0.7326
 3629TIP3   OH237809   2.542   3.060   0.797  0.0926  0.7624 -0.1684
 3629TIP3    H137810   2.532   2.975   0.754 -0.0740  0.1675  1.0018
 3629TIP3    H237811   2.558   3.039   0.889  3.1104  1.8837 -0.3013
 3630TIP3   OH237812   3.060   3.316   6.742 -0.0606 -0.2529 -0.4400
 3630TIP3    H137813   3.086   3.385   6.803  0.3529  1.4012 -2.3907
 3630TIP3    H237814   3.014   3.362   6.672 -0.8491 -2.1277 -1.2315
 3631TIP3   OH237815   0.821   5.524   6.374  0.0196 -0.0017 -0.4103
 3631TIP3    H137816   0.880   5.532   6.299  2.0281  2.1012  1.2634
 3631TIP3    H237817   0.751   5.586   6.356 -0.7121 -1.0736 -1.4760
 3632TIP3   OH237818   7.936   6.040   5.795  0.3206  0.0651 -0.0937
 3632TIP3    H137819   8.002   5.976   5.769 -0.2900 -1.1932  1.2972
 3632TIP3    H237820   7.985   6.111   5.837  0.8337 -0.6737  0.5808
 3633TIP3   OH237821   2.215   5.192   1.601 -0.2056 -0.5876 -0.3588
 3633TIP3    H137822   2.265   5.270   1.577  1.5618 -1.6618 -0.3339
 3633TIP3    H237823   2.219   5.137   1.522 -0.5077 -1.0992 -0.0194
 3634TIP3   OH237824   2.741   0.022   6.195 -0.8424  0.4983 -0.2224
 3634TIP3    H137825   2.738   8.462   6.185  1.7167  0.1046  1.7416
 3634TIP3    H237826   2.771   0.054   6.110 -1.6107 -0.4106 -0.8629
 3635TIP3   OH237827   7.624   4.189   1.156 -0.3055 -0.0314 -0.4700
 3635TIP3    H137828   7.664   4.119   1.105 -0.5538  0.3693 -1.2183
 3635TIP3    H237829   7.672   4.268   1.133 -0.3288  0.1350  0.0224
 3636TIP3   OH237830   5.394   5.925   6.967  0.6770 -0.4083 -0.8684
 3636TIP3    H137831   5.420   5.843   6.925  0.1473 -1.0203 -0.0389
 3636TIP3    H237832   5.320   5.901   7.022  0.2962  0.7059 -0.8775
 3637TIP3   OH237833   7.827   3.665   6.047 -0.5034 -0.0514 -0.1257
 3637TIP3    H137834   7.818   3.628   5.959 -0.5121 -1.0987  0.3023
 3637TIP3    H237835   7.903   3.621   6.084 -1.1083 -0.3935  0.7590
 3638TIP3   OH237836   4.772   4.464   5.310 -0.3676 -0.1325 -0.5993
 3638TIP3    H137837   4.811   4.391   5.358  0.2216 -0.1648 -1.1144
 3638TIP3    H237838   4.781   4.539   5.368 -0.2085 -0.2979 -0.4097
 3639TIP3   OH237839   5.804   0.195   1.202 -0.1675 -0.2776 -0.3579
 3639TIP3    H137840   5.873   0.179   1.267 -0.4119  0.3779  0.0720
 3639TIP3    H237841   5.724   0.204   1.254 -0.4004  0.0499 -0.7676
 3640TIP3   OH237842   4.361   5.922   0.767 -0.1720 -0.1933 -0.0138
 3640TIP3    H137843   4.275   5.883   0.782 -0.4744  1.3386  2.9067
 3640TIP3    H237844   4.361   6.003   0.818  2.5624  0.5455 -0.9666
 3641TIP3   OH237845   2.629   0.542   5.437 -0.5003 -0.0965  0.0003
 3641TIP3    H137846   2.594   0.594   5.364  0.5567  1.2498  0.4168
 3641TIP3    H237847   2.559   0.543   5.503 -0.5027  0.8050 -0.0048
 3642TIP3   OH237848   0.167   3.324   6.797  0.2755  0.3338 -0.3493
 3642TIP3    H137849   0.175   3.419   6.804 -0.1567  0.3014  0.7725
 3642TIP3    H237850   0.143   3.295   6.885 -0.4290 -0.7339 -0.8706
 3643TIP3   OH237851   7.476   2.669   6.242  0.1012 -0.7627 -0.1161
 3643TIP3    H137852   7.530   2.708   6.310 -2.1300 -0.4556  1.6070
 3643TIP3    H237853   7.386   2.696   6.264 -0.9173 -2.2216 -2.1171
 3644TIP3   OH237854   7.339   6.373   0.509  0.5956 -0.0869 -0.0729
 3644TIP3    H137855   7.394   6.353   0.585  0.1782 -0.7605  0.0610
 3644TIP3    H237856   7.398   6.419   0.449  1.0860 -0.0693  0.4071
 3645TIP3   OH237857   3.203   6.545   5.519 -0.0604 -0.0788  0.0711
 3645TIP3    H137858   3.119   6.508   5.547  0.7125 -1.0877  1.1921
 3645TIP3    H237859   3.195   6.554   5.424 -1.1998 -0.7587  0.0787
 3646TIP3   OH237860   6.186   1.628   6.531  0.0226 -0.9960 -0.1552
 3646TIP3    H137861   6.267   1.653   6.576 -0.1866 -0.2816 -0.1641
 3646TIP3    H237862   6.212   1.559   6.471  0.7041 -0.5055 -0.4322
 3647TIP3   OH237863   7.814   1.405   7.066 -0.2501 -0.8809 -0.1546
 3647TIP3    H137864   7.845   1.338   0.057 -0.4535 -0.3484  0.5332
 3647TIP3    H237865   7.884   1.411   7.001  1.3059  0.5481  1.5563
 3648TIP3   OH237866   7.756   6.455   2.038 -0.3209 -0.1917  0.5694
 3648TIP3    H137867   7.716   6.514   2.102 -1.6747 -0.6437  0.1855
 3648TIP3    H237868   7.702   6.376   2.042  0.6362 -0.8840  0.1085
 3649TIP3   OH237869   6.818   7.452   0.039  0.5001  0.3014 -0.5691
 3649TIP3    H137870   6.832   7.483   7.021 -0.3471  2.5308  0.0262
 3649TIP3    H237871   6.903   7.464   0.082  0.2862  1.5244 -0.4528
 3650TIP3   OH237872   7.789   4.133   0.277  0.3403  0.1618 -0.1539
 3650TIP3    H137873   7.739   4.101   0.352  0.2768  0.0506 -0.2429
 3650TIP3    H237874   7.722   4.166   0.216  0.3289 -0.6534 -0.5849
 3651TIP3   OH237875   6.503   0.875   0.463 -0.2557 -0.2785  0.2195
 3651TIP3    H137876   6.548   0.855   0.545  0.5043  1.8456  0.3900
 3651TIP3    H237877   6.511   0.970   0.454  0.5143 -0.5347 -2.8108
 3652TIP3   OH237878   2.549   1.926   1.758 -0.6326  0.1320  0.4054
 3652TIP3    H137879   2.613   1.940   1.688  0.6226  0.9758  1.6747
 3652TIP3    H237880   2.490   2.001   1.751 -0.4777  0.2441  0.2750
 3653TIP3   OH237881   3.373   6.036   0.519 -1.0745  0.5992  0.2859
 3653TIP3    H137882   3.402   5.966   0.462 -0.4165 -0.4786  1.8862
 3653TIP3    H237883   3.279   6.020   0.531 -0.6293 -1.0814  1.9876
 3654TIP3   OH237884   0.959   4.436   6.575 -0.3380 -0.4020  0.1683
 3654TIP3    H137885   0.920   4.508   6.625 -1.4732 -0.0687 -1.1301
 3654TIP3    H237886   0.889   4.407   6.517  0.3592 -2.0290  0.0753
 3655TIP3   OH237887   2.665   6.664   6.783  0.2996 -0.1621 -0.0087
 3655TIP3    H137888   2.573   6.638   6.782 -0.1285  1.2167  0.3866
 3655TIP3    H237889   2.697   6.637   6.869 -0.2089  0.8193  0.5013
 3656TIP3   OH237890   3.033   7.613   0.931 -0.1504 -0.2303  0.1488
 3656TIP3    H137891   3.012   7.638   1.021 -1.8046 -0.5926 -0.1030
 3656TIP3    H237892   2.964   7.552   0.906  1.4102 -1.7285 -0.7086
 3657TIP3   OH237893   1.094   1.003   6.214  0.5931  0.4304  0.5986
 3657TIP3    H137894   1.008   1.030   6.182  0.9201  1.3826  0.5037
 3657TIP3    H237895   1.075   0.931   6.275 -0.1834 -0.0529 -0.1802
 3658TIP3   OH237896   7.939   8.251   5.807 -0.6141  0.0338 -0.1412
 3658TIP3    H137897   7.856   8.205   5.815 -0.9428  0.8278  1.4379
 3658TIP3    H237898   7.953   8.260   5.713 -1.7700 -1.0663 -0.4337
 3659TIP3   OH237899   8.354   5.511   1.755  0.3255  0.5741 -0.3082
 3659TIP3    H137900   8.349   5.586   1.697  0.2989  0.3179 -0.6406
 3659TIP3    H237901   8.422   5.455   1.716 -0.9041 -0.4284 -1.0804
 3660TIP3   OH237902   7.451   3.283   0.274 -0.3845  0.1580  0.2622
 3660TIP3    H137903   7.364   3.316   0.295 -0.9395 -0.3449 -1.1510
 3660TIP3    H237904   7.500   3.360   0.245 -1.6076 -0.1165 -2.8172
 3661TIP3   OH237905   1.323   0.310   6.244  0.1091 -0.2068  0.2907
 3661TIP3    H137906   1.312   0.392   6.292  0.0824 -0.9333  1.5665
 3661TIP3    H237907   1.246   0.305   6.187 -0.2967  0.2691  0.7850
 3662TIP3   OH237908   6.197   3.412   0.208 -0.2729  0.9804 -0.0200
 3662TIP3    H137909   6.239   3.497   0.207 -2.5510  2.2307 -2.5183
 3662TIP3    H237910   6.252   3.357   0.153  1.1619  0.7763  1.5377
 3663TIP3   OH237911   2.517   6.341   1.076  0.2597 -0.2064  0.0512
 3663TIP3    H137912   2.487   6.385   0.996 -0.8522 -0.2620  0.4237
 3663TIP3    H237913   2.476   6.390   1.147 -0.1494 -1.2074  0.5197
 3664TIP3   OH237914   3.305   5.239   6.692 -0.1220 -0.1122 -0.1368
 3664TIP3    H137915   3.387   5.280   6.718 -0.6775 -0.2948  2.1311
 3664TIP3    H237916   3.324   5.145   6.689 -0.3377 -0.2184  1.0171
 3665TIP3   OH237917   0.605   0.728   0.135  0.2203  0.2549  0.5614
 3665TIP3    H137918   0.693   0.757   0.111  0.1335  0.4926  0.5371
 3665TIP3    H237919   0.614   0.633   0.146  0.5737  0.3288  0.9499
 3666TIP3   OH237920   2.675   0.842   1.550  0.1385 -0.2733  0.3483
 3666TIP3    H137921   2.730   0.877   1.480  0.3264 -0.0541  0.6077
 3666TIP3    H237922   2.673   0.910   1.617 -0.6467 -0.1732  0.2389
 3667TIP3   OH237923   1.699   0.745   6.662 -0.0955 -0.3676 -0.2681
 3667TIP3    H137924   1.729   0.788   6.582 -0.3043 -1.7071 -1.0977
 3667TIP3    H237925   1.779   0.713   6.703 -0.0477 -0.3064 -0.3120
 3668TIP3   OH237926   8.299   0.228   5.965  0.0673 -0.0592  0.7033
 3668TIP3    H137927   8.215   0.201   6.002 -0.7206  0.9264 -0.3273
 3668TIP3    H237928   8.309   0.176   5.885 -0.0708  0.5970  0.2584
 3669TIP3   OH237929   1.909   3.721   0.810 -0.6351 -0.4976  0.7631
 3669TIP3    H137930   1.834   3.740   0.866  0.9603 -1.5260  3.3901
 3669TIP3    H237931   1.986   3.732   0.866  1.0641 -1.9221 -1.1160
 3670TIP3   OH237932   0.933   1.245   0.649  0.1070 -0.5549  0.1943
 3670TIP3    H137933   0.915   1.309   0.580 -0.4109 -0.4393  0.4261
 3670TIP3    H237934   0.944   1.162   0.603 -0.0985 -0.4545 -0.0425
 3671TIP3   OH237935   1.385   6.050   1.329  0.4621 -0.3305  0.0537
 3671TIP3    H137936   1.398   6.137   1.368  1.5369 -0.6609  0.4720
 3671TIP3    H237937   1.473   6.011   1.327 -0.1129 -1.7128  0.5860
 3672TIP3   OH237938   6.989   6.938   0.786 -0.1652  0.2845 -0.1517
 3672TIP3    H137939   7.064   6.902   0.834 -0.7833 -2.5396 -1.1281
 3672TIP3    H237940   7.003   6.911   0.695 -3.0203 -1.7199 -0.1349
 3673TIP3   OH237941   7.951   4.267   0.485 -0.0317  0.5973  0.8731
 3673TIP3    H137942   7.949   4.207   0.560 -1.8286  0.8088  1.0568
 3673TIP3    H237943   7.917   4.214   0.412 -0.2998  0.9879  0.7124
 3674TIP3   OH237944   2.584   2.120   0.209 -0.0134 -0.0285  0.2661
 3674TIP3    H137945   2.635   2.039   0.214 -0.6787 -0.3986  1.3969
 3674TIP3    H237946   2.568   2.132   0.116  1.5808 -0.2474 -0.0744
 3675TIP3   OH237947   5.476   2.778   0.860  0.6429 -0.3956 -0.7618
 3675TIP3    H137948   5.552   2.807   0.910 -0.1319  2.4554 -1.1001
 3675TIP3    H237949   5.405   2.773   0.924  0.1249  1.2883 -1.1636
 3676TIP3   OH237950   1.193   0.296   0.772 -0.2620  0.3195 -0.6887
 3676TIP3    H137951   1.282   0.327   0.758  0.7071 -1.9950 -0.2149
 3676TIP3    H237952   1.183   0.296   0.867 -1.4068  2.0881 -0.7695
 3677TIP3   OH237953   1.459   7.918   6.975  0.0778 -0.8133 -0.3905
 3677TIP3    H137954   1.385   7.858   6.961  1.9243 -3.2522 -0.3233
 3677TIP3    H237955   1.434   7.970   7.052 -2.2140 -0.3812 -1.3313
 3678TIP3   OH237956   2.820   5.813   5.841 -0.7540  0.1689  0.5033
 3678TIP3    H137957   2.759   5.857   5.782 -2.3900 -2.3440  0.1660
 3678TIP3    H237958   2.765   5.756   5.894  1.2293 -1.8058  0.5888
 3679TIP3   OH237959   5.755   4.597   6.867 -0.2106  0.6076 -0.1524
 3679TIP3    H137960   5.823   4.618   6.931  0.4752  1.8417 -1.2263
 3679TIP3    H237961   5.795   4.531   6.810 -0.9627 -0.7912  0.8827
 3680TIP3   OH237962   0.430   7.294   1.259  0.0748 -0.3631 -0.5430
 3680TIP3    H137963   0.353   7.242   1.283 -1.0780  1.5532  0.1232
 3680TIP3    H237964   0.465   7.324   1.343  0.1213  0.7360 -0.9385
 3681TIP3   OH237965   7.146   0.468   0.269 -0.0179 -0.3110 -0.3034
 3681TIP3    H137966   7.156   0.374   0.254  1.5218 -0.1100 -0.7016
 3681TIP3    H237967   7.187   0.509   0.192 -1.9017  0.6972 -0.8404
 3682TIP3   OH237968   2.820   6.198   6.417 -0.0119  0.3160  0.6746
 3682TIP3    H137969   2.850   6.112   6.445 -0.8602 -0.4589 -0.6923
 3682TIP3    H237970   2.901   6.248   6.402  0.8131 -1.7847 -3.1763
 3683TIP3   OH237971   5.910   7.286   0.164  0.3202  0.0013  0.2599
 3683TIP3    H137972   5.873   7.358   0.216  0.0200  1.0324 -1.2876
 3683TIP3    H237973   5.884   7.306   0.074  3.1569 -0.1495 -0.7059
 3684TIP3   OH237974   3.186   7.438   6.927  0.1248 -0.4091  0.3406
 3684TIP3    H137975   3.171   7.374   6.996 -0.5849 -0.4832  0.1274
 3684TIP3    H237976   3.186   7.523   6.972  1.2064 -0.5473  0.6441
 3685TIP3   OH237977   1.502   6.505   6.423 -0.3687 -0.4976 -0.2430
 3685TIP3    H137978   1.411   6.481   6.441 -0.7080  0.6694 -0.3258
 3685TIP3    H237979   1.509   6.596   6.452  0.6266 -0.4075 -0.7391
 3686TIP3   OH237980   6.292   4.098   6.883 -0.3789 -0.3732 -0.0688
 3686TIP3    H137981   6.332   4.184   6.869  0.0964 -0.0291  2.6853
 3686TIP3    H237982   6.198   4.114   6.877 -0.2696 -0.0021 -1.0260
 3687TIP3   OH237983   2.395   5.112   1.156  0.4850  0.0417 -0.3816
 3687TIP3    H137984   2.339   5.124   1.080 -0.1437 -1.2323 -0.1408
 3687TIP3    H237985   2.340   5.068   1.220  1.4222 -0.1838  0.2985
 3688TIP3   OH237986   6.578   3.161   6.711 -0.4336  0.2442 -0.6208
 3688TIP3    H137987   6.493   3.138   6.749 -0.7028  2.0138 -0.0386
 3688TIP3    H237988   6.613   3.228   6.771  1.7151 -0.9558 -0.4495
 3689TIP3   OH237989   7.866   1.202   6.759 -0.3815 -0.2935  0.1455
 3689TIP3    H137990   7.940   1.256   6.787 -0.3722  0.3301 -1.0048
 3689TIP3    H237991   7.854   1.139   6.829  0.7987  0.0387  0.6679
 3690TIP3   OH237992   6.268   0.389   5.581  0.4206  0.1413 -0.5668
 3690TIP3    H137993   6.314   0.304   5.580  0.1565 -0.0025 -1.0436
 3690TIP3    H237994   6.176   0.366   5.571  0.0159  0.3133  2.1272
 3691TIP3   OH237995   6.915   5.141   0.567  0.5132  0.3217  0.2269
 3691TIP3    H137996   6.866   5.190   0.632  0.9848  1.6800 -0.4061
 3691TIP3    H237997   6.856   5.070   0.541 -1.0806  1.7734 -0.3506
 3692TIP3   OH237998   0.075   5.432   6.687  0.2254 -0.3227  0.4346
 3692TIP3    H137999   0.008   5.407   6.623  1.1807 -0.8585 -0.3851
 3692TIP3    H238000   0.087   5.526   6.674 -1.3640  0.0837  1.5823
 3693TIP3   OH238001   1.203   1.746   6.840 -0.4050  0.6931  0.2820
 3693TIP3    H138002   1.185   1.665   6.792 -1.4685  0.2331  1.4166
 3693TIP3    H238003   1.133   1.806   6.812  1.2574  1.8278 -1.7700
 3694TIP3   OH238004   1.397   5.215   5.112 -0.2469 -0.3685 -0.7799
 3694TIP3    H138005   1.362   5.303   5.124 -0.2254 -0.4263 -0.2931
 3694TIP3    H238006   1.490   5.223   5.132  0.4313  0.1470 -3.6390
 3695TIP3   OH238007   7.391   1.735   6.800 -0.3962  0.3780  0.3466
 3695TIP3    H138008   7.390   1.823   6.838  0.0434 -0.2055  1.7526
 3695TIP3    H238009   7.301   1.722   6.769 -0.5723  1.1598  0.4953
 3696TIP3   OH238010   6.470   1.377   1.830 -0.1199 -0.1723 -0.5640
 3696TIP3    H138011   6.484   1.302   1.888  0.1347 -1.1471 -1.8416
 3696TIP3    H238012   6.531   1.444   1.861 -0.0944 -0.6129  0.3692
 3697TIP3   OH238013   3.852   4.119   6.097  0.1393 -0.1446 -0.2101
 3697TIP3    H138014   3.803   4.163   6.027  0.4666  0.3117 -0.1510
 3697TIP3    H238015   3.804   4.037   6.111 -0.7705  0.4007  0.0145
 3698TIP3   OH238016   7.677   2.147   0.240 -0.1963  0.0369 -0.0728
 3698TIP3    H138017   7.732   2.080   0.280  0.6607  0.6523 -0.1985
 3698TIP3    H238018   7.663   2.117   0.150  0.3717  0.1344 -0.1946
 3699TIP3   OH238019   0.232   3.459   0.047  0.3162  0.4475 -0.7298
 3699TIP3    H138020   0.219   3.496   7.030  1.1288 -0.3264 -1.1864
 3699TIP3    H238021   0.191   3.372   0.042  0.9692  0.1269 -0.5566
 3700TIP3   OH238022   6.704   0.058   5.748 -0.0688  0.6069 -0.1607
 3700TIP3    H138023   6.666   8.506   5.739  0.2542  0.5164 -0.6560
 3700TIP3    H238024   6.672   0.089   5.833  1.1106 -0.6402  0.7782
 3701TIP3   OH238025   7.761   8.427   0.095  0.2565  0.1020  0.3126
 3701TIP3    H138026   7.820   8.424   0.020 -1.0007  2.9125 -0.9581
 3701TIP3    H238027   7.677   8.452   0.058 -0.6184  0.7747  2.5613
 3702TIP3   OH238028   4.538   2.604   0.500  0.1660  0.1018  0.3777
 3702TIP3    H138029   4.502   2.692   0.507 -1.1786 -0.3821 -0.1266
 3702TIP3    H238030   4.632   2.617   0.486 -0.0526  1.4527  0.0901
 3703TIP3   OH238031   2.967   3.121   0.252  0.1168 -0.0984 -0.0983
 3703TIP3    H138032   2.919   3.038   0.245 -0.0754 -0.0428  0.5023
 3703TIP3    H238033   2.982   3.132   0.346 -1.9056  1.6882  0.0834
 3704TIP3   OH238034   1.012   3.652   0.427 -0.0313 -0.3939  0.1458
 3704TIP3    H138035   1.006   3.740   0.464 -0.4902 -0.5199  0.3712
 3704TIP3    H238036   0.923   3.619   0.429 -0.3285  0.1036 -2.3482
 3705TIP3   OH238037   7.423   0.939   2.009  0.4718 -0.0664 -0.5370
 3705TIP3    H138038   7.358   0.993   2.053  1.4758 -0.0688  1.0290
 3705TIP3    H238039   7.450   0.991   1.933 -0.2923  0.5731 -0.3787
 3706TIP3   OH238040   3.663   7.426   0.699  0.6415  0.3650  0.0715
 3706TIP3    H138041   3.576   7.408   0.662  1.8656 -2.3079 -1.8055
 3706TIP3    H238042   3.724   7.395   0.633  3.0261 -0.4802  2.5071
 3707TIP3   OH238043   4.532   2.086   1.129 -0.3582 -0.2521 -0.5845
 3707TIP3    H138044   4.554   2.048   1.214  1.6132 -0.7894 -1.3025
 3707TIP3    H238045   4.614   2.123   1.097 -0.6876 -1.3525 -2.9078
 3708TIP3   OH238046   1.413   0.024   0.422  0.0459 -0.9381 -0.1867
 3708TIP3    H138047   1.494   0.054   0.381 -0.3483 -1.7676 -1.6835
 3708TIP3    H238048   1.377   8.497   0.359  0.1754 -3.5445  2.1415
 3709TIP3   OH238049   8.188   2.074   5.978 -0.2281 -0.5972  0.1218
 3709TIP3    H138050   8.242   2.146   6.011  0.4869  0.2949 -2.7363
 3709TIP3    H238051   8.123   2.059   6.047  0.1143  2.1955  1.1757
 3710TIP3   OH238052   1.385   2.727   6.802 -0.3740 -0.7598  0.3161
 3710TIP3    H138053   1.396   2.771   6.718  0.9135 -0.1615  0.7643
 3710TIP3    H238054   1.291   2.711   6.809 -0.5951 -0.1142 -0.8767
 3711TIP3   OH238055   0.507   5.716   6.910 -0.0807 -0.0863 -0.0254
 3711TIP3    H138056   0.511   5.634   6.960 -0.7762  0.4159  0.9007
 3711TIP3    H238057   0.492   5.689   6.820  1.9658 -1.0569 -0.1270
 3712TIP3   OH238058   6.074   2.299   6.383  0.1409  0.5984 -0.2179
 3712TIP3    H138059   6.044   2.208   6.381  1.6746  0.0166  1.2531
 3712TIP3    H238060   6.010   2.344   6.437  0.5759 -0.1316  0.9603
 3713TIP3   OH238061   7.868   2.354   0.093  0.2706  0.1077  0.7721
 3713TIP3    H138062   7.797   2.332   0.033  1.9140 -0.4076 -1.0903
 3713TIP3    H238063   7.869   2.283   0.157 -1.9292  0.9987  1.8920
 3714TIP3   OH238064   2.446   5.854   0.251 -0.1184  0.2000  0.5524
 3714TIP3    H138065   2.495   5.772   0.258  1.3718  0.9311 -0.7643
 3714TIP3    H238066   2.430   5.879   0.342 -1.2636 -1.8852  0.9964
 3715TIP3   OH238067   1.461   7.424   5.889 -0.3088  0.6722 -0.2690
 3715TIP3    H138068   1.483   7.415   5.796  2.0292  0.9996  0.1832
 3715TIP3    H238069   1.505   7.504   5.917  0.9096 -0.5433  1.5810
 3716TIP3   OH238070   8.211   7.706   0.301 -0.1756  0.2681  0.1376
 3716TIP3    H138071   8.263   7.781   0.330  0.0903  0.1960 -0.1499
 3716TIP3    H238072   8.256   7.630   0.338  1.1106  0.0366 -1.7673
 3717TIP3   OH238073   0.711   8.302   6.813  1.0257  0.3895  0.7548
 3717TIP3    H138074   0.807   8.297   6.814  1.1026  1.4125  2.1411
 3717TIP3    H238075   0.683   8.223   6.861  0.9879 -1.5029 -2.1301
 3718TIP3   OH238076   4.592   6.838   0.976 -0.1213 -0.6090 -0.4055
 3718TIP3    H138077   4.616   6.931   0.977 -1.4040 -0.2708  0.2729
 3718TIP3    H238078   4.522   6.832   0.911  0.1269 -1.1516 -0.6270
 3719TIP3   OH238079   4.646   1.069   6.204 -0.4334 -0.3990 -0.3889
 3719TIP3    H138080   4.612   0.980   6.214  0.2209 -0.6524 -0.3720
 3719TIP3    H238081   4.577   1.125   6.240  0.9346 -1.1366  3.9090
 3720TIP3   OH238082   0.745   4.481   6.977 -0.4413  0.1106 -0.5459
 3720TIP3    H138083   0.673   4.537   6.948 -0.4984  0.4093  0.1342
 3720TIP3    H238084   0.708   4.430   7.050 -0.1463 -0.1945 -0.6070
 3721TIP3   OH238085   3.356   7.175   5.349  0.0574 -0.1250 -0.5652
 3721TIP3    H138086   3.444   7.152   5.379  0.4799  0.0010 -1.6728
 3721TIP3    H238087   3.357   7.270   5.343 -0.6976  0.0161  0.9980
 3722TIP3   OH238088   2.002   0.289   5.193  0.1316  0.1842  0.7416
 3722TIP3    H138089   2.079   0.274   5.138 -0.7676  0.5327 -0.6852
 3722TIP3    H238090   2.011   0.226   5.265  0.4989 -1.5261 -0.7240
 3723TIP3   OH238091   6.317   0.371   6.221  0.4802 -0.2418 -0.3601
 3723TIP3    H138092   6.277   0.368   6.134 -1.9808  0.0711  0.6857
 3723TIP3    H238093   6.280   0.295   6.266 -0.2583  0.9681  1.1660
 3724TIP3   OH238094   3.795   6.723   5.492 -0.0507 -0.5918 -0.4124
 3724TIP3    H138095   3.881   6.752   5.459 -0.3117  0.6367 -0.0632
 3724TIP3    H238096   3.781   6.638   5.450  0.0521  0.4705 -2.7330
 3725TIP3   OH238097   4.212   6.644   6.665  0.0735 -0.2754  0.2218
 3725TIP3    H138098   4.175   6.670   6.749  0.8544 -2.0778  1.1794
 3725TIP3    H238099   4.170   6.702   6.601 -1.5880  0.2059  1.6771
 3726TIP3   OH238100   8.528   2.422   6.929  0.4205 -0.1740  0.6067
 3726TIP3    H138101   8.490   2.348   6.882 -1.5101 -0.6046  2.6694
 3726TIP3    H238102   0.037   2.382   7.004  0.3468  0.6748  1.1147
 3727TIP3   OH238103   2.199   6.598   6.083 -0.1880 -0.2145  0.3220
 3727TIP3    H138104   2.267   6.545   6.125 -0.2669 -0.5302  0.0491
 3727TIP3    H238105   2.243   6.681   6.061  0.3962 -0.7979 -0.7926
 3728TIP3   OH238106   7.587   3.550   1.246  0.4888 -0.0894  0.1409
 3728TIP3    H138107   7.537   3.490   1.302  1.3665  0.7251  1.8675
 3728TIP3    H238108   7.552   3.636   1.265 -0.8062  0.0338 -2.3851
 3729TIP3   OH238109   4.525   8.275   1.085  0.3379 -0.3921  0.0633
 3729TIP3    H138110   4.551   8.366   1.103 -0.5200  0.2029 -1.4817
 3729TIP3    H238111   4.600   8.238   1.039 -0.8333  0.9398 -3.2498
 3730TIP3   OH238112   2.061   2.182   5.527 -0.2472 -0.0287  0.2511
 3730TIP3    H138113   2.015   2.142   5.600  1.7888 -0.9471  1.1040
 3730TIP3    H238114   2.044   2.123   5.453 -2.1068  0.7716 -0.0113
 3731TIP3   OH238115   0.147   0.779   1.280 -0.9068 -0.4389  0.0556
 3731TIP3    H138116   0.185   0.692   1.268 -2.3241 -1.0794  0.1010
 3731TIP3    H238117   0.216   0.828   1.325  0.6990 -0.9063 -1.7230
 3732TIP3   OH238118   2.373   6.829   6.024 -0.2992  0.2550  0.8546
 3732TIP3    H138119   2.451   6.874   5.993 -0.9834  0.2053 -1.0466
 3732TIP3    H238120   2.328   6.893   6.079  0.2139  0.8632  0.5748
 3733TIP3   OH238121   8.175   5.893   0.475  0.3900  0.3427  0.2123
 3733TIP3    H138122   8.105   5.953   0.501  0.0746  0.9252 -1.8056
 3733TIP3    H238123   8.157   5.813   0.524 -0.3455  1.2246  1.4434
 3734TIP3   OH238124   6.317   4.967   0.737 -0.3434 -0.1679 -0.1162
 3734TIP3    H138125   6.375   4.898   0.771 -1.1656  0.0053  1.7010
 3734TIP3    H238126   6.372   5.045   0.733  0.6722 -0.9009 -2.4350
 3735TIP3   OH238127   3.210   1.973   7.021  0.3618 -0.1567  0.2788
 3735TIP3    H138128   3.270   2.038   7.058 -0.5656  0.7802  0.1969
 3735TIP3    H238129   3.142   1.964   0.017  0.5077 -1.0938  0.3076
 3736TIP3   OH238130   2.786   1.942   5.330 -0.0155 -0.1566 -0.2433
 3736TIP3    H138131   2.777   1.847   5.339 -0.7524 -0.2183 -1.3543
 3736TIP3    H238132   2.712   1.977   5.379  0.9913 -0.0729  1.2729
 3737TIP3   OH238133   4.847   8.071   6.582  0.4448 -0.3011  0.0132
 3737TIP3    H138134   4.812   8.080   6.670  2.7658 -0.3689  1.0160
 3737TIP3    H238135   4.860   7.976   6.572 -2.0011 -0.5678 -1.3823
 3738TIP3   OH238136   1.181   4.242   0.653 -0.3749 -0.1066 -0.7232
 3738TIP3    H138137   1.222   4.312   0.602  0.7871 -1.2083 -1.3630
 3738TIP3    H238138   1.235   4.236   0.733 -2.1812  1.6108  0.7300
 3739TIP3   OH238139   3.779   7.451   6.543 -0.3860  0.5221  0.0234
 3739TIP3    H138140   3.774   7.539   6.580  1.0063  0.2742  0.8726
 3739TIP3    H238141   3.734   7.396   6.607 -0.0830  0.4287  0.1560
 3740TIP3   OH238142   4.429   5.188   6.313 -0.2828 -0.0324 -0.1670
 3740TIP3    H138143   4.476   5.106   6.298 -0.7385 -0.5805  1.1703
 3740TIP3    H238144   4.413   5.224   6.226 -0.6669 -1.7196 -0.8264
 3741TIP3   OH238145   3.397   7.397   0.648  0.0813  0.1142 -0.1039
 3741TIP3    H138146   3.331   7.382   0.715 -0.1415  2.5647  0.3359
 3741TIP3    H238147   3.371   7.341   0.575 -0.4530 -1.5701  1.3090
 3742TIP3   OH238148   3.926   0.705   1.224  0.6795 -0.0126  0.1967
 3742TIP3    H138149   3.921   0.801   1.230 -1.4066 -0.0597 -0.0730
 3742TIP3    H238150   3.843   0.675   1.260  1.2120 -1.7309  0.0570
 3743TIP3   OH238151   6.372   2.357   1.668  0.4417 -0.7206  0.6827
 3743TIP3    H138152   6.277   2.348   1.676  0.0763  1.7974  0.0094
 3743TIP3    H238153   6.392   2.324   1.581 -0.0308 -0.1179  0.3347
 3744TIP3   OH238154   5.683   4.436   0.517 -0.3021  0.8480 -0.2849
 3744TIP3    H138155   5.719   4.480   0.441 -2.5617  2.5070 -0.4999
 3744TIP3    H238156   5.619   4.498   0.553 -0.6995 -0.6592  1.8243
 3745TIP3   OH238157   5.875   1.362   0.130 -0.2854  0.3141  0.1740
 3745TIP3    H138158   5.904   1.382   0.219  0.1411 -0.1394  0.1419
 3745TIP3    H238159   5.796   1.309   0.142 -0.0645  0.0078  0.2877
 3746TIP3   OH238160   1.163   4.991   5.826  0.1694 -0.0867 -0.2367
 3746TIP3    H138161   1.217   5.058   5.869  0.3155 -0.2927 -0.1009
 3746TIP3    H238162   1.078   5.033   5.815 -0.3730 -0.5784  1.7293
 3747TIP3   OH238163   8.284   7.773   1.686  0.1879 -0.2191 -0.9853
 3747TIP3    H138164   8.191   7.788   1.669  0.1564  0.5789 -0.1725
 3747TIP3    H238165   8.292   7.771   1.781  1.0320 -0.1035 -1.0390
 3748TIP3   OH238166   0.962   6.517   0.745  0.6066  0.2031 -0.0633
 3748TIP3    H138167   1.047   6.474   0.736  0.1697 -1.0979  1.5536
 3748TIP3    H238168   0.914   6.463   0.808 -1.0247  1.5163 -0.1089
 3749TIP3   OH238169   4.667   2.749   6.853  0.7367  0.7689  0.1188
 3749TIP3    H138170   4.709   2.806   6.917 -0.7112 -0.5434  2.3762
 3749TIP3    H238171   4.696   2.661   6.877 -1.2475  0.0805  0.1308
 3750TIP3   OH238172   4.486   7.407   1.206  0.8855 -0.2749 -0.1180
 3750TIP3    H138173   4.480   7.415   1.301  0.4292 -0.9785 -0.0807
 3750TIP3    H238174   4.558   7.346   1.191  0.5149 -0.6967 -0.1991
 3751TIP3   OH238175   4.648   7.868   6.120 -0.2216  0.1223  0.0965
 3751TIP3    H138176   4.553   7.875   6.113 -0.1106  2.6096  0.1436
 3751TIP3    H238177   4.676   7.827   6.038 -1.2013  1.3072 -0.8605
 3752TIP3   OH238178   7.057   2.528   6.315 -0.1612 -0.0345 -0.0503
 3752TIP3    H138179   7.097   2.519   6.402  1.6648 -1.5872 -0.9848
 3752TIP3    H238180   7.035   2.438   6.290 -1.6702  0.5067 -0.7734
 3753TIP3   OH238181   6.923   3.044   0.319  0.1041  0.3316 -0.2633
 3753TIP3    H138182   6.895   2.953   0.322 -0.5107  0.4589 -1.4332
 3753TIP3    H238183   6.956   3.063   0.407 -2.1922 -0.2325  0.7650
 3754TIP3   OH238184   7.827   7.694   5.677  0.7173  0.8234 -0.2958
 3754TIP3    H138185   7.815   7.638   5.600  0.2990 -0.2761  0.5496
 3754TIP3    H238186   7.772   7.655   5.744 -0.0310  2.5746  0.1856
 3755TIP3   OH238187   7.273   1.416   0.738 -0.0634 -0.5813  0.4107
 3755TIP3    H138188   7.295   1.323   0.743 -0.1484 -0.6350 -0.0966
 3755TIP3    H238189   7.325   1.457   0.807 -0.0299 -1.0060  0.6408
 3756TIP3   OH238190   1.806   3.348   5.953  0.6094  0.5147 -0.0860
 3756TIP3    H138191   1.744   3.302   5.896  1.3664  2.4876 -2.6696
 3756TIP3    H238192   1.892   3.322   5.922  1.0579  1.0944  0.6358
 3757TIP3   OH238193   1.329   8.406   0.628  0.1630  0.0347  0.0917
 3757TIP3    H138194   1.360   8.337   0.569 -2.2113  0.5382 -1.9031
 3757TIP3    H238195   1.328   8.485   0.574  1.8086  1.4836  2.0367
 3758TIP3   OH238196   7.599   0.027   4.693  0.2941  0.0011  0.1818
 3758TIP3    H138197   7.625   8.470   4.689  2.2397  0.4439  1.2188
 3758TIP3    H238198   7.583   0.043   4.785  0.5485  0.8323  0.0892
 3759TIP3   OH238199   7.221   5.533   0.892 -0.7421 -0.3552 -0.1382
 3759TIP3    H138200   7.314   5.555   0.883 -1.2011  1.7082 -0.3191
 3759TIP3    H238201   7.200   5.485   0.813  0.3225 -1.4764  0.2334
 3760TIP3   OH238202   2.929   5.251   5.478  0.4360  0.0138 -0.0890
 3760TIP3    H138203   2.988   5.178   5.495  1.3629  0.3895 -1.5254
 3760TIP3    H238204   2.858   5.240   5.542  1.0433 -1.5751  0.3577
 3761TIP3   OH238205   2.694   1.609   1.407 -0.1123 -0.4237 -0.1216
 3761TIP3    H138206   2.656   1.612   1.495  1.5010  1.0874  0.5821
 3761TIP3    H238207   2.620   1.588   1.350 -1.6077  0.4498  1.3851
 3762TIP3   OH238208   4.267   3.400   5.480 -0.4714 -0.1501 -0.1427
 3762TIP3    H138209   4.203   3.329   5.483 -0.1029 -0.7482 -3.0929
 3762TIP3    H238210   4.239   3.461   5.548 -3.1853 -1.1758 -0.2217
 3763TIP3   OH238211   3.685   4.262   0.769  0.4784 -0.2873  0.7187
 3763TIP3    H138212   3.657   4.200   0.836  0.0823 -0.2878  0.5537
 3763TIP3    H238213   3.692   4.346   0.815  0.3397 -0.3152  0.7912
 3764TIP3   OH238214   3.878   0.260   1.404 -0.2387 -0.7377 -0.4301
 3764TIP3    H138215   3.795   0.286   1.443  0.0944 -0.5908  0.2027
 3764TIP3    H238216   3.873   0.164   1.398 -0.3495 -0.7508 -0.1514
 3765TIP3   OH238217   3.829   2.354   6.511  0.4334  0.0895 -0.5765
 3765TIP3    H138218   3.916   2.369   6.476  0.3437  0.3621 -0.6841
 3765TIP3    H238219   3.842   2.287   6.579  0.4653 -1.1104 -1.7364
 3766TIP3   OH238220   1.602   2.728   5.755 -0.4581 -0.1878 -0.0870
 3766TIP3    H138221   1.542   2.751   5.684  0.5036 -0.4866 -1.0311
 3766TIP3    H238222   1.625   2.637   5.739 -1.0974 -0.6064  1.2777
 3767TIP3   OH238223   0.055   1.297   0.364  0.1848 -0.4517 -0.1457
 3767TIP3    H138224   0.113   1.323   0.436  1.8421 -0.3202 -1.4451
 3767TIP3    H238225   0.059   1.371   0.303 -0.9837 -0.6641 -0.4884
 3768TIP3   OH238226   0.571   4.631   6.311 -0.8919  0.1229 -0.0469
 3768TIP3    H138227   0.638   4.680   6.359 -0.6465  1.1954 -1.4251
 3768TIP3    H238228   0.574   4.667   6.222 -0.7508 -2.3669 -1.1182
 3769TIP3   OH238229   2.654   1.642   6.096 -0.0505  0.7346  0.3269
 3769TIP3    H138230   2.607   1.634   6.013  1.4016  0.8122 -0.5473
 3769TIP3    H238231   2.586   1.653   6.162 -1.2507  0.4327 -0.8259
 3770TIP3   OH238232   0.602   1.299   5.490  0.6290  0.4570 -0.4625
 3770TIP3    H138233   0.605   1.376   5.433 -1.1523 -0.4113 -1.8330
 3770TIP3    H238234   0.521   1.308   5.539  0.1829 -0.7142 -0.9409
 3771TIP3   OH238235   6.812   1.743   2.481  0.2189 -0.3632  0.1608
 3771TIP3    H138236   6.816   1.839   2.487  0.9903 -0.3055 -0.9616
 3771TIP3    H238237   6.824   1.724   2.387 -2.9505 -1.4291 -0.1473
 3772TIP3   OH238238   4.196   3.589   6.196 -0.3897  0.6078 -0.1446
 3772TIP3    H138239   4.190   3.670   6.145 -0.1976  0.9773  0.4077
 3772TIP3    H238240   4.205   3.619   6.287  0.9458 -0.0130 -0.0570
 3773TIP3   OH238241   6.461   6.174   1.208 -0.2653  0.2803  0.1760
 3773TIP3    H138242   6.384   6.119   1.192 -1.2797  0.8356  2.6647
 3773TIP3    H238243   6.526   6.143   1.145 -1.6480 -2.0050 -0.2516
 3774TIP3   OH238244   5.880   2.583   6.739  0.7218 -0.5960 -0.2815
 3774TIP3    H138245   5.889   2.677   6.726  1.4237 -0.5447  0.4951
 3774TIP3    H238246   5.928   2.544   6.667  1.8706 -0.3386  0.3205
 3775TIP3   OH238247   8.505   5.428   6.922  0.0876  0.4595 -0.4401
 3775TIP3    H138248   0.049   5.383   6.954 -0.8553 -0.1787  1.1045
 3775TIP3    H238249   8.524   5.447   6.830  2.4388  1.2190  0.1248
 3776TIP3   OH238250   0.322   2.954   5.439 -0.3541  0.6716  0.2283
 3776TIP3    H138251   0.261   2.913   5.378 -0.3784 -0.2595  0.8468
 3776TIP3    H238252   0.335   3.042   5.405 -1.2292  0.5378 -0.4916
 3777TIP3   OH238253   7.075   4.424   0.680 -0.0171 -0.2798 -0.0643
 3777TIP3    H138254   7.055   4.340   0.639  0.1246  0.0511 -0.8404
 3777TIP3    H238255   6.989   4.461   0.700 -0.0654 -1.0191  1.1744
 3778TIP3   OH238256   2.791   6.972   6.831 -0.0264 -0.2643 -0.2855
 3778TIP3    H138257   2.730   6.967   6.904  0.6460  1.6033  0.4812
 3778TIP3    H238258   2.755   7.041   6.774  0.1777 -0.7315 -0.9982
 3779TIP3   OH238259   2.810   4.433   0.962 -0.1996 -0.2378 -0.4058
 3779TIP3    H138260   2.881   4.421   1.026 -0.9692  0.5375  0.6341
 3779TIP3    H238261   2.843   4.501   0.903 -0.2905  0.5659  0.4380
 3780TIP3   OH238262   3.261   1.581   0.984 -0.2101  0.0650 -0.1720
 3780TIP3    H138263   3.252   1.632   1.064 -1.6354 -0.5796  0.1132
 3780TIP3    H238264   3.288   1.644   0.918 -1.1999  1.0590  0.3330
 3781TIP3   OH238265   1.441   2.396   6.596  0.8613  0.0655 -0.7019
 3781TIP3    H138266   1.351   2.394   6.628  1.3613  1.8739  0.9860
 3781TIP3    H238267   1.469   2.487   6.606  4.1403 -1.0699  2.6095
 3782TIP3   OH238268   4.837   4.297   0.029  0.1628  0.3805  1.1797
 3782TIP3    H138269   4.854   4.278   0.121 -0.1901  0.6652  1.3067
 3782TIP3    H238270   4.742   4.302   0.023  0.1151 -0.9569  0.5232
 3783TIP3   OH238271   6.133   4.086   0.545  0.2277  0.0887  0.2406
 3783TIP3    H138272   6.116   4.178   0.566 -0.6704  0.0218 -0.1458
 3783TIP3    H238273   6.223   4.071   0.574 -0.7727  0.0635  3.8925
 3784TIP3   OH238274   2.025   0.166   1.110 -0.2892  0.3987 -0.5419
 3784TIP3    H138275   2.036   0.071   1.108  1.4771  0.5262  1.2851
 3784TIP3    H238276   1.989   0.185   1.196  1.9297  1.5788  0.1964
 3785TIP3   OH238277   6.223   6.038   6.158  0.3454 -0.2569  0.1529
 3785TIP3    H138278   6.241   6.056   6.066 -1.2612  0.3667 -0.0649
 3785TIP3    H238279   6.273   6.104   6.206  0.2290  0.1771 -0.3193
 3786TIP3   OH238280   7.625   3.631   5.467  0.0877 -0.1041 -0.6503
 3786TIP3    H138281   7.697   3.677   5.510  0.4237 -2.6629  1.7921
 3786TIP3    H238282   7.666   3.586   5.393  0.7399 -0.3255 -0.1684
 3787TIP3   OH238283   1.636   5.462   6.077  0.5692 -0.6564  0.4496
 3787TIP3    H138284   1.670   5.378   6.045 -1.0535 -1.6186  1.1641
 3787TIP3    H238285   1.639   5.519   6.000 -1.1559 -2.2722 -0.9263
 3788TIP3   OH238286   7.041   6.312   6.509 -0.3672  0.6778  0.0344
 3788TIP3    H138287   7.072   6.340   6.423  1.5476 -3.5757 -0.9260
 3788TIP3    H238288   7.117   6.321   6.566 -0.9033  1.1488  0.6976
 3789TIP3   OH238289   3.027   6.835   5.369 -0.1778 -0.0658  0.2462
 3789TIP3    H138290   3.053   6.863   5.282  0.3186  0.9238  0.6927
 3789TIP3    H238291   3.058   6.745   5.376 -1.0620 -0.4829 -0.9211
 3790TIP3   OH238292   5.772   5.401   0.237  0.0766  0.7106  0.6117
 3790TIP3    H138293   5.751   5.404   0.331 -1.9486  0.6718  0.2035
 3790TIP3    H238294   5.720   5.471   0.198 -1.7689 -1.3621 -0.9093
 3791TIP3   OH238295   2.901   1.797   4.894 -0.2816 -0.1556  0.0029
 3791TIP3    H138296   2.850   1.716   4.892 -0.0735 -0.2705 -1.5030
 3791TIP3    H238297   2.851   1.858   4.840 -0.1341  0.5448  0.6436
 3792TIP3   OH238298   0.794   1.130   0.842 -0.2489 -0.3698  0.0356
 3792TIP3    H138299   0.863   1.107   0.905 -1.6917 -1.9092  1.1612
 3792TIP3    H238300   0.838   1.181   0.775  1.5711  0.4830  1.7869
 3793TIP3   OH238301   0.156   0.936   5.548  0.0152 -0.0186 -0.0069
 3793TIP3    H138302   0.235   0.888   5.520 -1.1591 -1.1095 -1.6261
 3793TIP3    H238303   0.134   0.991   5.474  0.6211  2.2325  1.3759
 3794TIP3   OH238304   5.345   4.699   5.182  0.2920 -0.0882 -0.1377
 3794TIP3    H138305   5.306   4.649   5.110 -0.0945 -0.0891  0.0675
 3794TIP3    H238306   5.282   4.770   5.199  1.1449  0.8747 -0.8689
 3795TIP3   OH238307   1.626   8.459   0.727 -0.1403 -0.3153 -0.4485
 3795TIP3    H138308   1.660   8.385   0.677 -1.9000  0.2154 -2.6203
 3795TIP3    H238309   1.532   8.442   0.734 -0.0571 -0.0948  2.3693
 3796TIP3   OH238310   8.013   3.792   1.626 -0.7560  0.3705 -0.6402
 3796TIP3    H138311   8.022   3.803   1.720  0.4119  1.8278 -0.8816
 3796TIP3    H238312   8.082   3.730   1.602  0.7941  2.0848 -0.8480
 3797TIP3   OH238313   0.001   3.415   0.887  0.1767  0.4022  0.3662
 3797TIP3    H138314   0.032   3.419   0.977  0.6316 -0.0594  0.2364
 3797TIP3    H238315   8.500   3.327   0.877  1.1471  0.0440 -0.2113
 3798TIP3   OH238316   6.921   4.624   7.016  0.0932 -0.2878  0.3391
 3798TIP3    H138317   6.974   4.635   6.936  0.3456  0.6001  0.6129
 3798TIP3    H238318   6.986   4.615   0.015 -0.0345  1.9617  0.8425
 3799TIP3   OH238319   2.751   2.281   1.298  0.1926 -0.2658  0.2603
 3799TIP3    H138320   2.702   2.345   1.349 -0.8673 -0.6956 -0.1960
 3799TIP3    H238321   2.795   2.227   1.365 -0.9923 -0.6741  0.7427
 3800TIP3   OH238322   5.308   3.602   5.356 -0.4100 -0.0730  0.6469
 3800TIP3    H138323   5.227   3.647   5.332  0.0208  0.6583  0.5421
 3800TIP3    H238324   5.308   3.523   5.301 -0.0848  0.9095 -0.8290
 3801TIP3   OH238325   5.307   6.075   5.238 -0.0628 -0.4959  0.7695
 3801TIP3    H138326   5.331   6.025   5.160  0.4445  0.0925  0.5411
 3801TIP3    H238327   5.381   6.133   5.253  0.1877 -1.1256  2.1371
 3802TIP3   OH238328   0.707   7.595   1.441 -0.0367 -0.4293  0.0729
 3802TIP3    H138329   0.683   7.687   1.446 -2.7317 -1.0180  0.0667
 3802TIP3    H238330   0.789   7.593   1.392  2.0126  2.1472  3.0467
 3803TIP3   OH238331   2.182   4.701   6.777  0.5027  0.0211 -0.1521
 3803TIP3    H138332   2.253   4.701   6.840  0.2463  0.2414  0.1429
 3803TIP3    H238333   2.120   4.767   6.811 -0.9456 -1.7617  0.8655
 3804TIP3   OH238334   7.005   7.211   6.260 -0.2345  0.7759  0.2181
 3804TIP3    H138335   7.069   7.170   6.202 -0.1300  1.5386 -0.2324
 3804TIP3    H238336   7.057   7.254   6.328 -0.2149  1.8007 -0.4164
 3805TIP3   OH238337   7.117   6.114   1.900 -0.7437  0.0641  0.3873
 3805TIP3    H138338   7.183   6.181   1.917  0.4022 -0.7069 -0.8469
 3805TIP3    H238339   7.134   6.046   1.966  1.9548 -1.6718 -1.8345
 3806TIP3   OH238340   0.230   1.032   5.805 -0.6733 -0.2226  0.3252
 3806TIP3    H138341   0.201   1.120   5.779 -3.4236 -0.5399  1.8942
 3806TIP3    H238342   0.214   0.979   5.727  4.5858  1.0902 -2.0427
 3807TIP3   OH238343   7.673   4.816   0.241  0.0877 -0.3812 -0.1730
 3807TIP3    H138344   7.654   4.816   0.335  0.9887 -1.7071  0.0328
 3807TIP3    H238345   7.695   4.725   0.220 -1.4486 -0.4129 -1.9696
 3808TIP3   OH238346   2.860   2.804   5.874 -0.0291 -0.5533  0.0931
 3808TIP3    H138347   2.885   2.889   5.839 -1.2096  0.0045  0.5551
 3808TIP3    H238348   2.878   2.809   5.967 -1.8299 -0.1051  0.4538
 3809TIP3   OH238349   7.085   7.107   0.140 -0.2961  0.0372  0.3162
 3809TIP3    H138350   7.031   7.031   0.118  0.6059 -0.1881 -1.2904
 3809TIP3    H238351   7.167   7.070   0.172  0.4587  0.2682 -1.2460
 3810TIP3   OH238352   8.459   5.368   6.454  0.1053 -0.4955 -0.4978
 3810TIP3    H138353   8.374   5.326   6.439 -0.1333 -0.9623  1.6957
 3810TIP3    H238354   8.522   5.311   6.409 -0.6557 -0.5547 -1.5225
 3811TIP3   OH238355   1.378   6.662   0.017  0.7487 -0.1426 -1.1147
 3811TIP3    H138356   1.327   6.594   7.044  0.4101 -2.3294  2.2741
 3811TIP3    H238357   1.313   6.713   0.066  1.4815 -1.0417  0.8605
 3812TIP3   OH238358   3.725   7.736   6.637 -0.8162  0.1011 -0.2927
 3812TIP3    H138359   3.811   7.766   6.664 -0.3794  0.1908 -1.6920
 3812TIP3    H238360   3.704   7.789   6.560 -1.5453 -0.8059 -0.7482
 3813TIP3   OH238361   7.534   8.416   6.775 -0.4138 -0.1718 -0.5968
 3813TIP3    H138362   7.470   8.427   6.845  0.7517  1.1863  0.3142
 3813TIP3    H238363   7.488   8.445   6.696 -0.6772  1.6548  0.1821
 3814TIP3   OH238364   0.630   7.803   6.524 -0.0367 -0.1149 -0.3683
 3814TIP3    H138365   0.579   7.816   6.444  0.3487 -1.3428 -0.8351
 3814TIP3    H238366   0.581   7.850   6.591  0.4448  2.2746 -1.5805
 3815TIP3   OH238367   1.627   8.052   1.145 -0.1215  0.6580 -0.3009
 3815TIP3    H138368   1.582   8.049   1.060  0.1321  0.2690 -0.4242
 3815TIP3    H238369   1.640   8.145   1.162 -0.5730  0.7558 -0.4781
 3816TIP3   OH238370   7.936   2.107   6.358  0.6160 -0.7632 -0.1282
 3816TIP3    H138371   7.875   2.181   6.354 -0.0774 -1.2573  0.9157
 3816TIP3    H238372   7.924   2.061   6.275 -0.8671 -1.1823  0.2998
 3817TIP3   OH238373   8.438   5.226   5.459  0.2985  0.0767 -0.2423
 3817TIP3    H138374   8.361   5.169   5.466 -0.5245  1.2537  0.4532
 3817TIP3    H238375   8.441   5.249   5.366  1.0634 -1.6400 -0.6809
 3818TIP3   OH238376   2.393   5.046   5.428  0.5327 -0.3223 -0.4527
 3818TIP3    H138377   2.334   5.054   5.353 -0.8064  0.2213  0.6061
 3818TIP3    H238378   2.418   5.136   5.449  0.2933 -0.4017  0.2015
 3819TIP3   OH238379   7.930   5.429   6.795 -0.3371 -0.0087 -0.5350
 3819TIP3    H138380   7.936   5.519   6.827  0.0588 -0.3667  0.4560
 3819TIP3    H238381   8.019   5.406   6.770 -0.7422  0.4643 -2.5374
 3820TIP3   OH238382   3.103   0.371   6.688  0.3353  0.5054 -0.1286
 3820TIP3    H138383   3.081   0.297   6.632 -1.9735  0.6887  0.4051
 3820TIP3    H238384   3.041   0.440   6.661  0.5814  1.2923  1.2198
 3821TIP3   OH238385   2.049   5.221   0.800 -0.1609 -0.3788  0.2476
 3821TIP3    H138386   2.108   5.147   0.804  2.2716  1.4626  0.7329
 3821TIP3    H238387   2.053   5.260   0.888 -1.8807 -0.0019  0.2006
 3822TIP3   OH238388   6.031   7.307   1.329  0.4935  0.0861 -0.5960
 3822TIP3    H138389   5.999   7.275   1.413  0.2188  1.6685 -0.0782
 3822TIP3    H238390   5.956   7.298   1.270  0.7053 -1.0824 -0.7227
 3823TIP3   OH238391   5.143   5.440   6.468  0.4201 -0.0926 -0.2841
 3823TIP3    H138392   5.204   5.400   6.406  2.3564  0.7877  0.9802
 3823TIP3    H238393   5.059   5.438   6.422  1.4366 -0.9935 -2.2528
 3824TIP3   OH238394   1.685   0.209   5.200  0.0869 -0.3310  0.2264
 3824TIP3    H138395   1.699   0.152   5.276  0.1057  0.0020  0.4738
 3824TIP3    H238396   1.756   0.273   5.205 -1.0163  0.8758  1.0237
 3825TIP3   OH238397   6.006   5.762   5.808  0.5217  0.6957  0.0423
 3825TIP3    H138398   6.006   5.852   5.842  1.3994  0.7453 -0.0598
 3825TIP3    H238399   6.098   5.745   5.788  0.4556 -0.4673  0.6856
 3826TIP3   OH238400   2.597   5.131   0.008 -0.2222  0.1119 -0.0930
 3826TIP3    H138401   2.668   5.175   0.054 -0.4254  0.2523  0.0869
 3826TIP3    H238402   2.630   5.043   7.062 -0.2795 -0.0532  0.6299
 3827TIP3   OH238403   5.042   0.139   0.281  0.0792 -0.2606  0.5447
 3827TIP3    H138404   5.016   0.174   0.196 -1.3442 -2.3378  0.0497
 3827TIP3    H238405   5.124   0.184   0.301  0.1257  0.7550 -1.6093
 3828TIP3   OH238406   3.367   3.253   5.474 -0.3284  0.0930  0.0718
 3828TIP3    H138407   3.335   3.302   5.399 -1.2169 -0.1291  0.2809
 3828TIP3    H238408   3.290   3.203   5.504 -0.4553  1.3564  2.0696
 3829TIP3   OH238409   0.431   7.656   0.083  0.4694  0.1992 -0.7545
 3829TIP3    H138410   0.417   7.640   0.176  2.5705 -1.2087 -0.6138
 3829TIP3    H238411   0.452   7.749   0.077 -0.5873  0.4987  0.0341
 3830TIP3   OH238412   5.222   5.075   5.905 -0.1856  0.4618 -0.1754
 3830TIP3    H138413   5.242   5.035   5.821 -0.6101  0.9991 -0.5402
 3830TIP3    H238414   5.152   5.138   5.886 -2.1166 -1.2045  1.0147
 3831TIP3   OH238415   7.837   2.471   5.532  0.0595 -0.5523  0.2509
 3831TIP3    H138416   7.745   2.470   5.505 -0.0414 -0.7757  0.6027
 3831TIP3    H238417   7.836   2.507   5.620  0.6640  3.1669 -1.0577
 3832TIP3   OH238418   4.649   5.330   6.828  0.9153  0.2250 -0.5704
 3832TIP3    H138419   4.573   5.381   6.856 -0.5790 -1.5996 -1.0446
 3832TIP3    H238420   4.692   5.383   6.761 -0.5437  0.8710 -1.0195
 3833TIP3   OH238421   0.263   6.326   1.208 -0.3837 -0.3680  0.0995
 3833TIP3    H138422   0.326   6.288   1.148 -0.2253 -0.5376  0.3704
 3833TIP3    H238423   0.294   6.300   1.295  0.0274  0.8248  0.3310
 3834TIP3   OH238424   5.900   6.116   6.997 -0.1444  0.0966  0.3003
 3834TIP3    H138425   5.822   6.114   6.942  0.5498  1.6923 -0.8541
 3834TIP3    H238426   5.868   6.143   0.012 -0.9898 -0.2398  0.0996
 3835TIP3   OH238427   3.086   0.920   6.583  0.1368  0.3342 -0.4275
 3835TIP3    H138428   3.049   0.838   6.616  0.4848  0.6009  0.6716
 3835TIP3    H238429   3.172   0.926   6.624 -0.2535  1.6878  0.2849
 3836TIP3   OH238430   7.729   3.091   6.336  0.2568  0.0456  0.0849
 3836TIP3    H138431   7.758   3.142   6.261  0.5635  0.3366  0.3932
 3836TIP3    H238432   7.745   3.000   6.311  1.6953  0.1995  0.3290
 3837TIP3   OH238433   7.396   7.408   5.217  0.2089 -0.2021 -0.4662
 3837TIP3    H138434   7.333   7.479   5.226 -0.8997 -1.3289  1.3431
 3837TIP3    H238435   7.383   7.374   5.129 -3.3187 -1.7640  0.5107
 3838TIP3   OH238436   1.713   6.122   0.571 -0.3791 -0.1664 -0.7326
 3838TIP3    H138437   1.788   6.110   0.514  0.2548  0.9052 -0.1516
 3838TIP3    H238438   1.701   6.037   0.614  0.1309 -0.5085 -1.2574
 3839TIP3   OH238439   0.814   7.302   5.871 -0.1183  0.0028  0.5034
 3839TIP3    H138440   0.881   7.247   5.912  1.3831  0.4885 -1.1690
 3839TIP3    H238441   0.830   7.293   5.777 -2.3210  0.2986  0.0544
 3840TIP3   OH238442   6.946   2.482   1.841 -0.6203  0.6041  0.4373
 3840TIP3    H138443   6.963   2.572   1.870 -2.2204  0.8974  0.5418
 3840TIP3    H238444   6.898   2.442   1.914 -1.7932  0.3353 -0.4556
 3841TIP3   OH238445   5.523   1.013   1.151  0.9166  0.7630 -0.0693
 3841TIP3    H138446   5.460   1.044   1.215  1.2203  0.1761  0.5240
 3841TIP3    H238447   5.540   1.089   1.095  0.5358  1.2371  0.4466
 3842TIP3   OH238448   6.002   1.549   1.281  0.3907 -0.2161 -0.2769
 3842TIP3    H138449   5.988   1.455   1.271  1.5396 -0.6652  1.8356
 3842TIP3    H238450   6.079   1.567   1.227 -0.0498 -0.3923 -0.9819
 3843TIP3   OH238451   7.438   8.358   0.118 -0.5884  0.1557 -0.0459
 3843TIP3    H138452   7.475   8.298   0.053 -0.2844  1.7261 -1.3723
 3843TIP3    H238453   7.365   8.401   0.073  0.4907  2.3079  0.1309
 3844TIP3   OH238454   6.882   1.624   5.472  0.3734  0.4401  0.2050
 3844TIP3    H138455   6.928   1.702   5.443 -0.0242  0.0615 -1.5328
 3844TIP3    H238456   6.850   1.583   5.392 -0.7868 -0.6699  1.1871
 3845TIP3   OH238457   7.812   8.063   6.074  0.3368  0.1087  0.1085
 3845TIP3    H138458   7.728   8.108   6.066  0.2162  0.0663  1.0261
 3845TIP3    H238459   7.833   8.035   5.985 -1.5743 -1.6191  0.1257
 3846TIP3   OH238460   4.373   4.039   1.239  0.2811  0.2989  0.5476
 3846TIP3    H138461   4.460   4.051   1.275  0.6032 -0.7408  0.1637
 3846TIP3    H238462   4.314   4.072   1.307  0.9815  2.3440  0.2314
 3847TIP3   OH238463   0.119   8.527   0.975  0.2457  0.5412  0.8902
 3847TIP3    H138464   0.044   8.468   0.968 -0.7857  1.9235 -0.1778
 3847TIP3    H238465   0.189   8.483   0.927 -0.2987 -0.1251  0.7015
 3848TIP3   OH238466   1.616   7.114   6.362  0.0039 -0.3901  0.8211
 3848TIP3    H138467   1.692   7.149   6.407 -0.2760 -0.4196  1.3265
 3848TIP3    H238468   1.545   7.176   6.382  0.0747  0.0559 -0.2844
 3849TIP3   OH238469   0.546   2.092   6.767 -0.2395  0.3768  0.1276
 3849TIP3    H138470   0.477   2.114   6.704  0.1579  0.2170 -0.3744
 3849TIP3    H238471   0.610   2.042   6.715 -0.3103 -0.4870  0.8462
 3850TIP3   OH238472   8.014   0.119   6.931 -0.4374 -0.0454  0.5173
 3850TIP3    H138473   8.075   0.061   6.886 -0.0047  1.3722 -0.8052
 3850TIP3    H238474   7.930   0.103   6.888 -0.1956  0.6950 -0.2693
 3851TIP3   OH238475   0.738   2.023   5.608  0.0761 -0.4015 -0.5510
 3851TIP3    H138476   0.768   2.112   5.587 -0.8556  0.8070  2.6662
 3851TIP3    H238477   0.692   1.994   5.530 -1.2500  2.7412 -1.0686
 3852TIP3   OH238478   1.922   0.385   5.924 -0.3188 -0.3942 -0.8904
 3852TIP3    H138479   1.859   0.362   5.992 -0.3075 -0.4439 -0.8964
 3852TIP3    H238480   1.902   0.476   5.902 -0.4119 -0.4206 -0.9176
 3853TIP3   OH238481   5.145   6.255   0.195  0.4647 -0.1873  0.1672
 3853TIP3    H138482   5.111   6.226   0.110 -0.3119 -1.5382  0.8949
 3853TIP3    H238483   5.115   6.188   0.257 -1.6114  2.2800  2.0588
 3854TIP3   OH238484   4.250   8.480   0.511 -0.0315 -0.9309  0.0194
 3854TIP3    H138485   4.324   0.004   0.519  1.1123 -2.3765  0.6241
 3854TIP3    H238486   4.210   8.479   0.598 -1.5671  0.7547 -0.5862
 3855TIP3   OH238487   5.438   4.251   6.291  0.2330 -0.5945  0.2466
 3855TIP3    H138488   5.346   4.224   6.293 -0.3741  1.3653  1.7503
 3855TIP3    H238489   5.447   4.303   6.211 -0.4721  0.6748  0.9576
 3856TIP3   OH238490   5.490   2.865   6.647 -0.1975  0.0368  0.0756
 3856TIP3    H138491   5.523   2.863   6.737  0.9273 -1.2308 -0.3295
 3856TIP3    H238492   5.417   2.927   6.650  1.4607  2.0589  1.2672
 3857TIP3   OH238493   6.370   1.136   0.166 -0.3582  0.2777 -0.7172
 3857TIP3    H138494   6.346   1.098   0.251  1.0458 -0.0917 -0.4670
 3857TIP3    H238495   6.287   1.170   0.132 -1.1216 -0.3783  0.3832
 3858TIP3   OH238496   4.479   6.678   6.521  0.3245 -0.1210  0.1942
 3858TIP3    H138497   4.398   6.683   6.571 -0.2296 -1.9748 -0.4094
 3858TIP3    H238498   4.454   6.632   6.440  1.4866  1.4365 -1.1224
 3859TIP3   OH238499   0.483   0.369   5.913 -0.2206  0.5931  0.2235
 3859TIP3    H138500   0.409   0.309   5.923 -0.5759  1.1157  0.7845
 3859TIP3    H238501   0.517   0.382   6.001  0.8492 -0.0100 -0.0858
 3860TIP3   OH238502   5.744   8.287   5.433 -0.2555 -0.9163  0.0888
 3860TIP3    H138503   5.672   8.349   5.425  0.4837 -0.0647 -0.0601
 3860TIP3    H238504   5.783   8.284   5.345  0.0571 -1.1790  0.2324
 3861TIP3   OH238505   6.882   7.404   0.484 -0.3913 -0.7514  0.2035
 3861TIP3    H138506   6.918   7.348   0.553 -2.3155 -1.2718  0.8543
 3861TIP3    H238507   6.859   7.343   0.414 -0.1826 -0.4461 -0.1358
 3862TIP3   OH238508   2.830   8.266   1.569 -0.6294  0.2962  0.3607
 3862TIP3    H138509   2.813   8.214   1.647 -1.1591  2.0019  1.4469
 3862TIP3    H238510   2.749   8.316   1.555  0.3532  1.9776  0.3390
 3863TIP3   OH238511   8.058   7.950   0.110 -0.3448 -0.0604  0.0363
 3863TIP3    H138512   8.026   7.864   0.083 -2.0088  0.0121  1.6243
 3863TIP3    H238513   8.096   7.936   0.197  2.0869  0.2969 -0.8720
 3864TIP3   OH238514   2.708   1.293   4.587 -0.7404  0.0665  0.2471
 3864TIP3    H138515   2.788   1.345   4.577 -1.2252  0.9161  0.6310
 3864TIP3    H238516   2.720   1.247   4.670 -0.4615 -0.1610  0.0832
 3865TIP3   OH238517   1.677   4.794   0.196 -0.0617 -0.5656 -1.1949
 3865TIP3    H138518   1.740   4.844   0.145 -0.1732  0.9227  0.0413
 3865TIP3    H238519   1.608   4.858   0.218  0.2222 -0.9916  1.1702
 3866TIP3   OH238520   1.468   6.061   5.447  0.2589  0.2516 -0.3419
 3866TIP3    H138521   1.562   6.050   5.465  0.1053 -0.8920 -0.2045
 3866TIP3    H238522   1.424   6.018   5.520 -0.4718  4.0067  1.6989
 3867TIP3   OH238523   6.645   0.418   5.659  0.0289  0.1219  0.4349
 3867TIP3    H138524   6.730   0.422   5.703  0.7362 -1.4444 -0.6640
 3867TIP3    H238525   6.617   0.327   5.671 -1.0064  0.3621 -0.0816
 3868TIP3   OH238526   6.644   1.591   1.856  0.1078  0.4591  0.1448
 3868TIP3    H138527   6.594   1.616   1.778  0.0447  2.7422  0.8413
 3868TIP3    H238528   6.722   1.548   1.821 -0.1287  1.0359 -1.1732
 3869TIP3   OH238529   5.024   5.107   0.261 -0.4120 -0.3896  0.3513
 3869TIP3    H138530   5.073   5.025   0.264  2.6589  1.1996 -1.4932
 3869TIP3    H238531   4.995   5.114   0.170  0.4928  1.1506  0.1628
 3870TIP3   OH238532   5.301   0.618   0.524  0.6278  0.0793 -0.6444
 3870TIP3    H138533   5.351   0.573   0.457 -1.3085 -0.2295 -1.9847
 3870TIP3    H238534   5.347   0.601   0.606  1.3963 -2.1134 -1.4882
 3871TIP3   OH238535   1.336   4.949   6.992  0.1648 -0.5329 -0.5529
 3871TIP3    H138536   1.250   4.950   6.950 -0.1477  0.7942  0.0765
 3871TIP3    H238537   1.346   4.859   7.024 -0.9863 -0.7056 -0.6371
 3872TIP3   OH238538   8.103   4.757   1.775  0.2509 -0.0440 -0.3472
 3872TIP3    H138539   8.085   4.826   1.711  0.7766 -0.6514 -1.1813
 3872TIP3    H238540   8.041   4.687   1.752 -0.5614  0.2877  0.7525
 3873TIP3   OH238541   6.409   3.510   6.438 -0.5746 -0.1390 -0.2468
 3873TIP3    H138542   6.494   3.496   6.397 -0.2994 -0.6700  0.4923
 3873TIP3    H238543   6.427   3.573   6.508 -1.1562  1.2607 -1.3023
 3874TIP3   OH238544   6.118   4.259   1.292 -0.1891 -0.3656 -0.3409
 3874TIP3    H138545   6.089   4.333   1.345 -0.1628  0.1924 -1.0821
 3874TIP3    H238546   6.061   4.187   1.317 -0.5958  0.0626 -0.0212
 3875TIP3   OH238547   2.070   0.568   1.668  0.0512  0.4549 -0.1978
 3875TIP3    H138548   2.152   0.537   1.707 -0.1545  0.3570  0.1520
 3875TIP3    H238549   2.067   0.525   1.582 -0.7066 -1.2650  0.6496
 3876TIP3   OH238550   1.018   5.343   6.572  0.9020 -0.4099  0.1317
 3876TIP3    H138551   0.925   5.319   6.574  1.2674 -2.0546 -0.7348
 3876TIP3    H238552   1.039   5.349   6.479  1.9871 -1.4739  0.2902
 3877TIP3   OH238553   5.041   2.384   0.823  0.1842 -0.1737 -0.9475
 3877TIP3    H138554   4.962   2.412   0.870  1.4500  1.2319  0.5133
 3877TIP3    H238555   5.009   2.331   0.750 -2.0731  0.1704 -0.2874
 3878TIP3   OH238556   5.074   1.953   0.421  0.5769  0.8467 -0.2179
 3878TIP3    H138557   5.064   2.012   0.496 -1.3270  0.5610 -0.2031
 3878TIP3    H238558   5.167   1.931   0.420  0.6280  0.7334  2.1528
 3879TIP3   OH238559   3.979   3.943   5.622  0.5176  0.2980  0.5306
 3879TIP3    H138560   4.020   3.955   5.708 -1.2211 -2.1013  1.8275
 3879TIP3    H238561   3.888   3.921   5.642  0.2014 -0.8828 -1.8985
 3880TIP3   OH238562   0.780   1.304   5.841 -1.0300  0.1440 -0.1669
 3880TIP3    H138563   0.751   1.396   5.845 -1.8439 -0.1331  1.0476
 3880TIP3    H238564   0.767   1.272   5.930  2.2101 -0.2924  0.2837
 3881TIP3   OH238565   5.032   0.008   5.946  0.1062  0.6134  0.2458
 3881TIP3    H138566   5.016   8.530   6.040  1.9564  0.4394  0.5814
 3881TIP3    H238567   4.946   0.032   5.910 -0.9430 -0.7353  1.7129
 3882TIP3   OH238568   3.787   2.668   1.435  0.3683 -0.2302 -0.4598
 3882TIP3    H138569   3.856   2.735   1.434  0.4553 -0.3217 -0.5735
 3882TIP3    H238570   3.811   2.611   1.509 -0.1641  0.3431  0.1660
 3883TIP3   OH238571   5.556   0.883   5.321 -0.3158 -0.8241 -0.0341
 3883TIP3    H138572   5.575   0.798   5.359  1.3745 -0.2027  0.5866
 3883TIP3    H238573   5.640   0.929   5.320 -0.9497  0.4102 -1.4513
 3884TIP3   OH238574   1.412   5.341   0.737 -0.5384  0.2726  0.1108
 3884TIP3    H138575   1.440   5.261   0.783 -1.4151  0.5597  1.2191
 3884TIP3    H238576   1.323   5.320   0.707 -0.0133  0.1350 -1.3876
 3885TIP3   OH238577   6.715   4.018   5.226  0.0358  0.0646  0.7387
 3885TIP3    H138578   6.748   3.971   5.150 -1.0409 -0.7201  0.7343
 3885TIP3    H238579   6.793   4.043   5.275  0.6967 -0.1866 -0.1721
 3886TIP3   OH238580   7.173   7.293   6.465 -0.2051  0.1577  0.5085
 3886TIP3    H138581   7.133   7.353   6.528 -0.2833  0.8086 -0.1519
 3886TIP3    H238582   7.237   7.244   6.517  0.4357  1.3667  0.9013
 3887TIP3   OH238583   8.251   2.210   0.413 -0.3159 -0.2384  0.2419
 3887TIP3    H138584   8.159   2.230   0.399 -0.9310 -0.5746  3.3134
 3887TIP3    H238585   8.293   2.296   0.418 -0.2784 -0.0875 -1.8050
 3888TIP3   OH238586   1.823   6.820   5.298  0.1178 -0.1235  0.3250
 3888TIP3    H138587   1.845   6.733   5.263 -0.6976 -0.1533 -0.1413
 3888TIP3    H238588   1.816   6.876   5.220  0.1893  0.2536  0.5891
 3889TIP3   OH238589   7.388   4.870   0.098  0.1453 -0.1815  0.5211
 3889TIP3    H138590   7.438   4.902   0.173  2.3184  1.8920 -1.6091
 3889TIP3    H238591   7.351   4.949   0.059 -1.1470 -1.2277 -0.4746
 3890TIP3   OH238592   3.559   6.827   5.659 -0.2193  0.4393 -0.5074
 3890TIP3    H138593   3.497   6.858   5.593  0.0268  0.6122 -0.6563
 3890TIP3    H238594   3.622   6.775   5.611 -0.2187  0.3064 -0.3630
 3891TIP3   OH238595   1.398   5.090   0.894 -0.4203  0.5119  0.3258
 3891TIP3    H138596   1.313   5.135   0.901 -1.3007 -0.5409 -2.1744
 3891TIP3    H238597   1.425   5.074   0.984 -3.2342  0.2893  1.2224
 3892TIP3   OH238598   7.324   5.576   4.893  0.3501  0.7561  0.7936
 3892TIP3    H138599   7.380   5.550   4.820  2.0285  2.1279  1.5074
 3892TIP3    H238600   7.260   5.636   4.854  0.4127  0.4796  0.2481
 3893TIP3   OH238601   1.470   1.240   0.753 -0.4074  0.1807 -0.4518
 3893TIP3    H138602   1.551   1.191   0.763  0.2642  0.9316 -1.8942
 3893TIP3    H238603   1.404   1.187   0.797  0.7407 -0.7737  0.1708
 3894TIP3   OH238604   4.722   2.338   1.717 -0.1338 -1.0062  0.4827
 3894TIP3    H138605   4.680   2.282   1.652  0.1361 -1.8150  0.9909
 3894TIP3    H238606   4.775   2.278   1.770  0.9634 -0.1426  0.4112
 3895TIP3   OH238607   4.319   3.767   5.711 -0.1345 -0.2867 -0.2074
 3895TIP3    H138608   4.333   3.819   5.633  0.2957  0.2154  0.2009
 3895TIP3    H238609   4.243   3.808   5.754  0.1912 -0.0037  0.1027
 3896TIP3   OH238610   2.686   8.151   0.513 -0.5302 -0.2352 -0.6251
 3896TIP3    H138611   2.653   8.082   0.455 -1.2230 -1.3160  0.9917
 3896TIP3    H238612   2.609   8.182   0.560 -0.1322  1.3185 -0.9604
 3897TIP3   OH238613   2.599   4.127   0.699 -0.1627 -0.0061 -0.1197
 3897TIP3    H138614   2.695   4.126   0.698 -0.1618 -0.2816  0.1064
 3897TIP3    H238615   2.577   4.208   0.745 -0.0578  0.8556 -1.5468
 3898TIP3   OH238616   4.683   2.961   1.095  0.1294 -0.0903 -0.4677
 3898TIP3    H138617   4.657   2.879   1.053  0.6719 -0.1966 -0.6016
 3898TIP3    H238618   4.646   2.955   1.183  0.9745 -0.9214 -0.1447
 3899TIP3   OH238619   2.947   6.445   1.293 -0.0146  0.6976 -0.6092
 3899TIP3    H138620   2.982   6.472   1.378 -0.3296  0.6209 -0.4527
 3899TIP3    H238621   2.863   6.403   1.314  1.3901 -2.3477 -0.6012
 3900TIP3   OH238622   0.259   4.313   6.229  0.3794  0.7978  0.2680
 3900TIP3    H138623   0.262   4.330   6.135  2.4455  0.6180  0.2572
 3900TIP3    H238624   0.244   4.399   6.269 -0.8792  0.8168 -0.2218
 3901TIP3   OH238625   1.378   4.736   4.984  0.3590 -0.6373  0.2169
 3901TIP3    H138626   1.362   4.821   5.025 -1.9856 -0.7716 -0.3014
 3901TIP3    H238627   1.369   4.753   4.890  4.0882 -0.6633 -0.3082
 3902TIP3   OH238628   1.762   4.889   1.234 -0.0258  0.7436  0.0566
 3902TIP3    H138629   1.752   4.919   1.144  0.7121  0.8353 -0.0065
 3902TIP3    H238630   1.729   4.961   1.287 -1.3389  0.3129 -0.1460
 3903TIP3   OH238631   4.871   5.385   7.000 -0.0030  0.3980  0.3108
 3903TIP3    H138632   4.819   5.413   0.004 -0.2334  1.3499 -0.1861
 3903TIP3    H238633   4.819   5.410   6.923  0.5503  0.1039 -0.1703
 3904TIP3   OH238634   3.070   7.779   6.510 -0.8657 -0.0394  0.3200
 3904TIP3    H138635   3.045   7.795   6.601  2.1799 -2.6597  1.8289
 3904TIP3    H238636   3.133   7.707   6.515  0.4661  0.5859 -3.7423
 3905TIP3   OH238637   3.951   3.295   0.667 -0.2188 -0.2309 -0.1393
 3905TIP3    H138638   4.000   3.237   0.725 -0.8618 -0.4997  0.1459
 3905TIP3    H238639   4.018   3.344   0.619  0.3384  0.9786  1.7861
 3906TIP3   OH238640   3.545   6.715   5.360 -0.1628  0.3104  0.2929
 3906TIP3    H138641   3.474   6.779   5.364  0.3220  0.9466 -0.7935
 3906TIP3    H238642   3.625   6.768   5.358  0.2923 -0.3588  0.4223
 3907TIP3   OH238643   8.174   3.575   6.608 -0.0220 -0.0264  0.1659
 3907TIP3    H138644   8.100   3.628   6.639  0.4912 -0.8401  3.0314
 3907TIP3    H238645   8.251   3.628   6.626  0.2071  1.1923 -3.6039
 3908TIP3   OH238646   5.799   7.341   6.065 -0.0069  0.1545  0.0600
 3908TIP3    H138647   5.767   7.316   6.152 -0.7390 -0.5373 -0.3940
 3908TIP3    H238648   5.803   7.437   6.068  0.1729  0.1278  0.9190
 3909TIP3   OH238649   6.072   3.117   6.694 -0.1366  0.9055 -0.0831
 3909TIP3    H138650   6.015   3.174   6.643 -0.6744  0.7261  0.3187
 3909TIP3    H238651   6.089   3.164   6.775 -0.8311  0.3747  0.3822
 3910TIP3   OH238652   7.556   5.679   5.100 -0.3955 -0.0322  0.2731
 3910TIP3    H138653   7.641   5.722   5.112  1.0819 -0.8940 -4.8114
 3910TIP3    H238654   7.578   5.591   5.069 -2.8995  0.4725 -3.5884
 3911TIP3   OH238655   1.690   7.789   1.106  0.3657  0.3660 -0.5419
 3911TIP3    H138656   1.660   7.878   1.125 -0.9871 -0.0966 -0.3946
 3911TIP3    H238657   1.785   7.796   1.103  0.4352  1.3549  1.9461
 3912TIP3   OH238658   3.152   1.005   1.020  0.5983  0.7864  0.2069
 3912TIP3    H138659   3.230   1.043   1.059  0.8127  0.7039 -0.1412
 3912TIP3    H238660   3.084   1.015   1.087  1.2153 -0.3161  1.0351
 3913TIP3   OH238661   7.719   0.177   6.779 -0.5694  0.2706  0.2214
 3913TIP3    H138662   7.637   0.130   6.766 -1.0785  1.1751  0.1085
 3913TIP3    H238663   7.694   0.260   6.820 -0.1309  2.0224 -2.7440
 3914TIP3   OH238664   0.642   4.657   0.403  0.2706  0.4307  0.4831
 3914TIP3    H138665   0.713   4.640   0.342 -0.0146  0.7881  0.0442
 3914TIP3    H238666   0.631   4.575   0.450 -0.9485 -0.5816 -1.4429
 3915TIP3   OH238667   5.135   5.352   5.442  0.5941  0.0889 -0.0218
 3915TIP3    H138668   5.204   5.366   5.377  1.4825  0.1057  0.8748
 3915TIP3    H238669   5.064   5.410   5.415 -0.0521 -1.6368 -2.2801
 3916TIP3   OH238670   6.087   2.924   1.146  0.0159 -0.2778  0.5380
 3916TIP3    H138671   6.021   2.994   1.138  0.5151  0.0536 -0.9040
 3916TIP3    H238672   6.042   2.846   1.113  0.9605  0.3810 -2.5722
 3917TIP3   OH238673   0.326   7.215   6.559  0.5962 -0.4514  0.1713
 3917TIP3    H138674   0.381   7.224   6.481  0.3934  0.1123  0.0874
 3917TIP3    H238675   0.335   7.299   6.604  0.3694 -0.6189  0.5282
 3918TIP3   OH238676   6.228   1.084   0.613  0.4605  0.0448  0.7125
 3918TIP3    H138677   6.173   1.161   0.595  0.9648  0.6501  1.6920
 3918TIP3    H238678   6.228   1.035   0.530  0.6444  1.4317 -0.1434
 3919TIP3   OH238679   7.245   3.023   6.704  0.1783  0.2537 -0.0452
 3919TIP3    H138680   7.228   2.956   6.770 -0.6864  0.8005  0.2994
 3919TIP3    H238681   7.296   3.090   6.749 -2.6310  1.9255  0.9008
 3920TIP3   OH238682   5.926   5.770   6.122 -0.5593 -0.5239  0.5466
 3920TIP3    H138683   6.012   5.751   6.087 -0.4488 -0.6222  0.8703
 3920TIP3    H238684   5.866   5.756   6.048 -0.4731 -1.9919  0.7264
 3921TIP3   OH238685   5.881   6.314   5.786 -0.1449  0.3664 -0.1937
 3921TIP3    H138686   5.919   6.346   5.868 -1.0253 -0.6364  0.6467
 3921TIP3    H238687   5.917   6.371   5.719 -0.8311  2.4198  1.0808
 3922TIP3   OH238688   4.487   7.663   0.748 -0.0629  0.1831  1.0280
 3922TIP3    H138689   4.562   7.614   0.715  0.1616  0.8006  0.5977
 3922TIP3    H238690   4.475   7.633   0.838  1.8851  1.4017  1.7505
 3923TIP3   OH238691   5.659   7.750   0.728 -0.1028  0.1023 -0.5820
 3923TIP3    H138692   5.668   7.838   0.765  1.3616  0.3985 -1.5467
 3923TIP3    H238693   5.693   7.692   0.796  1.9064  0.5840 -1.0899
 3924TIP3   OH238694   3.104   5.111   5.262 -0.3236  0.4307 -0.2279
 3924TIP3    H138695   3.175   5.047   5.265 -2.2921 -1.8766  2.1368
 3924TIP3    H238696   3.043   5.075   5.197 -0.9074  0.4923  0.2747
 3925TIP3   OH238697   4.148   1.267   0.401 -0.9747  0.3762  0.2106
 3925TIP3    H138698   4.212   1.319   0.450  0.8914  0.3489 -1.9941
 3925TIP3    H238699   4.130   1.319   0.323 -4.6322  0.8876  1.2406
 3926TIP3   OH238700   8.509   3.699   5.864  0.3131  0.0474  0.1231
 3926TIP3    H138701   8.465   3.625   5.906  0.2919 -0.1092 -0.1719
 3926TIP3    H238702   8.448   3.726   5.795  1.3086 -1.0958 -1.2466
 3927TIP3   OH238703   4.996   8.401   5.434  0.8133  0.0428  0.2104
 3927TIP3    H138704   4.962   8.488   5.412 -0.6218 -0.6231 -0.3374
 3927TIP3    H238705   5.049   8.376   5.359 -0.1685 -0.2341 -0.4188
 3928TIP3   OH238706   0.796   7.282   1.534 -0.1690  0.0904  0.4286
 3928TIP3    H138707   0.863   7.302   1.468  0.3759  1.2456  1.2874
 3928TIP3    H238708   0.773   7.368   1.570 -0.2909 -0.5328  1.8860
 3929TIP3   OH238709   8.318   1.747   0.372  0.1548 -0.3133  0.0508
 3929TIP3    H138710   8.259   1.774   0.443 -0.5753  0.6837 -0.8818
 3929TIP3    H238711   8.327   1.826   0.318  1.9313 -0.6056 -0.1353
 3930TIP3   OH238712   8.143   4.270   6.747  0.9266  0.0859  0.9766
 3930TIP3    H138713   8.105   4.191   6.708 -0.4077 -0.2276  2.8036
 3930TIP3    H238714   8.233   4.271   6.713  0.4057 -1.1288 -0.6199
 3931TIP3   OH238715   1.831   1.684   5.845 -0.2411 -0.0569 -0.0054
 3931TIP3    H138716   1.752   1.630   5.845 -0.4005  0.1214 -1.6866
 3931TIP3    H238717   1.902   1.623   5.826  0.2022 -0.3600  2.2771
 3932TIP3   OH238718   3.117   7.218   5.720 -0.8350  0.4755 -0.0425
 3932TIP3    H138719   3.139   7.138   5.672 -1.1044 -0.1030  0.7660
 3932TIP3    H238720   3.024   7.232   5.702 -0.4471  1.4813 -1.4054
 3933TIP3   OH238721   7.393   4.638   6.504  0.5539  0.0589 -1.2987
 3933TIP3    H138722   7.402   4.732   6.495 -0.3231  0.2427 -0.4504
 3933TIP3    H238723   7.448   4.601   6.434 -1.0051  1.2170 -3.2391
 3934TIP3   OH238724   3.436   2.019   5.896 -0.6259  0.3030  0.1188
 3934TIP3    H138725   3.394   1.946   5.941 -1.9331 -1.1150 -3.0856
 3934TIP3    H238726   3.365   2.063   5.850  0.7194  0.8943 -1.4969
 3935TIP3   OH238727   3.508   0.876   1.367 -0.0154 -0.5319  0.6319
 3935TIP3    H138728   3.481   0.904   1.455 -1.1361  0.7483 -0.0860
 3935TIP3    H238729   3.553   0.952   1.331 -1.8770 -0.0682 -0.8566
 3936TIP3   OH238730   3.235   8.352   6.223 -0.4754 -0.3765  0.1059
 3936TIP3    H138731   3.260   8.432   6.177  2.2269 -0.7077  0.8143
 3936TIP3    H238732   3.242   8.283   6.157 -2.2627 -0.1681 -0.3608
 3937TIP3   OH238733   6.794   8.285   6.023 -0.1785  0.0582 -0.0399
 3937TIP3    H138734   6.707   8.324   6.027 -0.2290 -0.1794  1.7006
 3937TIP3    H238735   6.818   8.269   6.114  1.0638 -1.2805 -0.5609
 3938TIP3   OH238736   8.401   0.857   6.792  0.4583  0.5427 -0.6226
 3938TIP3    H138737   8.348   0.915   6.737 -1.0773  0.2497  0.4930
 3938TIP3    H238738   8.403   0.775   6.743  1.6464  1.1375 -1.6403
 3939TIP3   OH238739   4.670   3.779   6.292  0.6335  0.0260 -0.7602
 3939TIP3    H138740   4.733   3.850   6.279  0.8701 -0.1425 -0.5548
 3939TIP3    H238741   4.724   3.699   6.288  0.1803 -0.2418 -2.4566
 3940TIP3   OH238742   6.388   5.671   6.611 -0.5530  0.2833 -0.1154
 3940TIP3    H138743   6.380   5.653   6.705 -0.6600  1.8157  0.1932
 3940TIP3    H238744   6.303   5.707   6.586  0.2014  2.0358 -0.2733
 3941TIP3   OH238745   0.440   5.059   5.447 -0.6856  0.3522 -0.2902
 3941TIP3    H138746   0.454   5.061   5.352 -1.3529 -0.8510 -0.4254
 3941TIP3    H238747   0.393   4.977   5.463 -2.4481  1.5071  0.8263
 3942TIP3   OH238748   5.767   4.354   6.369 -0.1656 -0.6459  0.2461
 3942TIP3    H138749   5.808   4.287   6.424  1.3911  2.1317  2.7764
 3942TIP3    H238750   5.697   4.391   6.424  0.0564  0.8356 -0.4171
 3943TIP3   OH238751   8.074   2.602   6.714  0.0699  0.3064 -0.2803
 3943TIP3    H138752   8.002   2.542   6.735 -0.0323 -0.0093 -1.4466
 3943TIP3    H238753   8.153   2.558   6.745 -0.2643  0.8627  1.4257
 3944TIP3   OH238754   0.749   6.504   1.087 -0.2733 -0.4373 -0.5365
 3944TIP3    H138755   0.733   6.513   1.181  0.7335 -0.1588 -0.3835
 3944TIP3    H238756   0.662   6.488   1.049 -0.7861  0.2002  0.3439
 3945TIP3   OH238757   6.778   3.465   0.536  0.4283 -0.3470  0.2100
 3945TIP3    H138758   6.690   3.485   0.506  0.1525 -0.5278  0.8650
 3945TIP3    H238759   6.816   3.549   0.561  0.3264 -0.3061  0.2242
 3946TIP3   OH238760   8.043   1.819   6.393  0.2219 -0.6704 -0.3007
 3946TIP3    H138761   8.117   1.854   6.343  0.5861 -1.9629 -0.7270
 3946TIP3    H238762   7.999   1.760   6.332 -2.8610  2.1049 -0.9774
 3947TIP3   OH238763   6.523   0.598   5.044  0.3269  0.4087 -0.5840
 3947TIP3    H138764   6.581   0.673   5.032 -0.0564  1.1489  1.7772
 3947TIP3    H238765   6.435   0.635   5.044  0.1807  0.1454  1.5677
 3948TIP3   OH238766   7.542   2.435   6.352  0.1579 -0.1214 -0.4409
 3948TIP3    H138767   7.517   2.478   6.271 -0.6560 -0.4654 -0.3807
 3948TIP3    H238768   7.564   2.507   6.412  0.2547  0.1488 -0.7970
 3949TIP3   OH238769   1.717   7.669   6.505  0.5483  0.2537 -0.0533
 3949TIP3    H138770   1.797   7.698   6.550  1.0433  0.7592 -1.2146
 3949TIP3    H238771   1.727   7.702   6.416 -0.7090 -0.1686 -0.3663
 3950TIP3   OH238772   6.309   2.926   5.361 -0.0649 -0.0588  0.3156
 3950TIP3    H138773   6.293   2.994   5.297  0.4686 -1.9093 -1.9245
 3950TIP3    H238774   6.224   2.885   5.375  0.2501 -1.4860 -1.5210
 3951TIP3   OH238775   0.482   0.271   1.715  0.2202  0.7597 -0.0208
 3951TIP3    H138776   0.412   0.332   1.738 -0.2527 -0.1674  1.1314
 3951TIP3    H238777   0.442   0.210   1.653 -0.3592 -0.3808  1.3978
 3952TIP3   OH238778   4.890   7.435   0.460  0.0905  0.5958  0.3389
 3952TIP3    H138779   4.915   7.527   0.451  0.0877  0.4728 -1.3232
 3952TIP3    H238780   4.961   7.395   0.510  1.4755  0.9843 -1.2281
 3953TIP3   OH238781   4.710   6.981   0.025  0.1685  0.0287  0.2319
 3953TIP3    H138782   4.749   7.037   0.093 -1.4437  0.8811  0.4984
 3953TIP3    H238783   4.692   6.898   0.070  1.3044 -0.2603  0.1927
 3954TIP3   OH238784   3.496   1.427   0.365  0.3160  0.3161 -0.1461
 3954TIP3    H138785   3.442   1.466   0.434  0.8068 -0.2791  0.6070
 3954TIP3    H238786   3.555   1.498   0.338 -0.8948  1.0050 -1.0660
 3955TIP3   OH238787   2.229   1.240   6.205  0.4192  0.2445  0.1311
 3955TIP3    H138788   2.210   1.311   6.267  0.8451  0.4459  0.0331
 3955TIP3    H238789   2.315   1.261   6.171  0.1263  0.2104 -0.6423
 3956TIP3   OH238790   2.226   1.709   5.415  0.0994  0.2712 -0.0387
 3956TIP3    H138791   2.248   1.792   5.458  1.1210 -0.1898  0.3730
 3956TIP3    H238792   2.229   1.730   5.321  1.0707  0.5572  0.0356
 3957TIP3   OH238793   5.374   2.339   0.637  0.2234  0.5202  0.8401
 3957TIP3    H138794   5.447   2.328   0.576  1.7486  0.7217  2.5633
 3957TIP3    H238795   5.296   2.338   0.581  1.5884  1.5008 -1.1921
 3958TIP3   OH238796   0.461   2.682   4.950  0.0423  0.6383  0.1922
 3958TIP3    H138797   0.551   2.666   4.921  0.2319  0.1139  1.0292
 3958TIP3    H238798   0.421   2.595   4.952 -0.8784  0.9891 -1.3758
 3959TIP3   OH238799   4.914   6.646   6.310 -0.2519  0.4388  0.1937
 3959TIP3    H138800   4.874   6.609   6.231  0.5116 -0.4184  0.1860
 3959TIP3    H238801   4.864   6.609   6.383  1.4086 -1.8809  0.2586
 3960TIP3   OH238802   5.557   3.269   0.115 -0.3426  0.4890 -0.6036
 3960TIP3    H138803   5.535   3.223   0.033 -1.3611  0.8996 -0.5845
 3960TIP3    H238804   5.620   3.212   0.158 -0.2630 -0.0418 -1.3886
 3961TIP3   OH238805   6.560   2.307   0.916 -0.0470 -0.0626 -0.3156
 3961TIP3    H138806   6.649   2.298   0.881 -0.3658 -0.4262 -1.0598
 3961TIP3    H238807   6.519   2.372   0.859  0.2787  1.4793  1.1329
 3962TIP3   OH238808   0.562   8.474   6.527  0.1207  0.1294 -0.2541
 3962TIP3    H138809   0.550   8.457   6.434  3.1460 -0.1628 -0.7096
 3962TIP3    H238810   0.531   8.394   6.570 -1.8858  0.5076 -0.9031
 3963TIP3   OH238811   0.941   0.102   0.974 -0.7827  0.2118  0.0894
 3963TIP3    H138812   1.027   0.099   0.932 -0.8947 -0.0112 -0.1241
 3963TIP3    H238813   0.916   0.194   0.970  0.5284  0.7278  2.3508
 3964TIP3   OH238814   7.594   7.528   0.045 -0.0025  0.3978  1.0158
 3964TIP3    H138815   7.535   7.589   0.089 -0.7582  0.1641  0.3515
 3964TIP3    H238816   7.535   7.465   0.002  0.7443 -0.6314  1.4510
 3965TIP3   OH238817   6.575   0.629   6.880 -0.4311 -0.4257 -0.6400
 3965TIP3    H138818   6.493   0.592   6.912 -0.3739 -0.1355 -0.1574
 3965TIP3    H238819   6.614   0.558   6.828 -0.4761 -0.9374  0.0125
 3966TIP3   OH238820   3.690   8.378   6.113 -0.1880 -0.4327 -0.7476
 3966TIP3    H138821   3.665   8.470   6.105  0.6929 -0.2465 -1.5011
 3966TIP3    H238822   3.628   8.342   6.176 -0.5821  0.6626 -0.4881
 3967TIP3   OH238823   4.059   2.289   1.861 -0.2020 -0.2619  0.0177
 3967TIP3    H138824   4.127   2.349   1.891 -1.1787  1.0669 -0.3341
 3967TIP3    H238825   3.977   2.331   1.887 -0.9136 -2.0802  0.9087
 3968TIP3   OH238826   5.977   3.591   0.003  0.4691 -0.1155 -0.3030
 3968TIP3    H138827   5.960   3.559   0.091  0.4407  1.1325  0.1650
 3968TIP3    H238828   6.070   3.576   7.060  0.7693  0.9347  0.4836
 3969TIP3   OH238829   6.926   1.729   5.742  0.8614  0.1528  0.4572
 3969TIP3    H138830   6.984   1.662   5.778 -1.4372 -2.3501 -0.1540
 3969TIP3    H238831   6.934   1.720   5.647 -1.6462 -1.4885  0.2957
 3970TIP3   OH238832   5.973   5.522   1.117 -0.2357 -0.1843  0.0407
 3970TIP3    H138833   5.956   5.615   1.134 -1.1001  0.0571 -1.8531
 3970TIP3    H238834   5.888   5.480   1.127 -0.4518 -0.2772 -1.8105
 3971TIP3   OH238835   2.753   5.474   4.874  0.9213  0.3923 -0.3881
 3971TIP3    H138836   2.802   5.520   4.942 -0.4497  0.2436  0.7487
 3971TIP3    H238837   2.672   5.523   4.865 -0.3853 -1.4720  0.5312
 3972TIP3   OH238838   0.396   1.134   1.203  0.0526  0.0558  0.8223
 3972TIP3    H138839   0.473   1.078   1.203  1.2229  1.5899  0.1361
 3972TIP3    H238840   0.351   1.114   1.121 -0.5674 -1.1765  1.4393
 3973TIP3   OH238841   0.223   6.887   0.026  0.3705  0.0985  0.1877
 3973TIP3    H138842   0.147   6.906   0.081 -0.4214  1.4425 -1.3092
 3973TIP3    H238843   0.187   6.839   7.022  0.9237  1.0657 -0.7144
 3974TIP3   OH238844   4.013   2.987   0.357 -0.5052 -0.3286 -0.4043
 3974TIP3    H138845   4.093   2.986   0.409 -0.3498 -0.4753 -0.6458
 3974TIP3    H238846   3.975   2.900   0.369 -0.0870 -0.6182 -1.1233
 3975TIP3   OH238847   5.648   3.456   6.402  0.3440 -0.1881 -0.6257
 3975TIP3    H138848   5.694   3.502   6.333 -2.2046  0.3092 -2.1268
 3975TIP3    H238849   5.610   3.380   6.359 -1.8475  0.4803 -0.0030
 3976TIP3   OH238850   6.488   2.171   1.170  0.0679  0.0513 -0.0041
 3976TIP3    H138851   6.500   2.230   1.095  2.8933 -0.9579 -0.4702
 3976TIP3    H238852   6.478   2.085   1.131 -1.1427 -0.1614  0.7448
 3977TIP3   OH238853   6.833   7.342   6.452  0.0795 -0.0701  0.6464
 3977TIP3    H138854   6.849   7.302   6.367  0.4200  0.0127  0.6712
 3977TIP3    H238855   6.866   7.279   6.516  0.9277  0.3871  0.6759
 3978TIP3   OH238856   7.927   5.473   0.757 -0.6860  0.3072 -0.1395
 3978TIP3    H138857   8.018   5.447   0.773 -1.1828 -1.9355 -0.6386
 3978TIP3    H238858   7.933   5.537   0.685  0.5699  1.3692  0.8458
 3979TIP3   OH238859   6.949   3.640   6.089 -0.3226  0.2500  0.5826
 3979TIP3    H138860   7.011   3.665   6.157 -0.8912 -0.0121  1.2114
 3979TIP3    H238861   6.986   3.559   6.052  0.4713  0.8936 -0.0820
 3980TIP3   OH238862   1.917   0.132   5.757 -0.7980 -0.1336 -0.1692
 3980TIP3    H138863   2.001   0.085   5.755 -1.8995 -2.1814 -1.2949
 3980TIP3    H238864   1.937   0.214   5.803  2.0773  0.0066 -1.4383
 3981TIP3   OH238865   1.636   7.206   6.013 -0.0088  0.5135  0.2279
 3981TIP3    H138866   1.564   7.246   5.965 -1.8266  0.0338  2.4370
 3981TIP3    H238867   1.637   7.250   6.098  1.2006 -0.6498  0.8578
 3982TIP3   OH238868   8.440   4.016   6.707 -0.0056  0.8279  0.0514
 3982TIP3    H138869   8.433   3.992   6.799 -0.4280  2.0591  0.3545
 3982TIP3    H238870   8.534   4.026   6.692  0.0236  1.3208  0.5434
 3983TIP3   OH238871   4.928   0.655   1.302  0.1293 -0.1571 -0.0193
 3983TIP3    H138872   4.893   0.730   1.350  1.2799  0.3641  0.0346
 3983TIP3    H238873   5.021   0.652   1.326 -0.2712 -2.8803  1.6484
 3984TIP3   OH238874   5.486   2.197   1.771 -0.1957 -0.0347  0.5407
 3984TIP3    H138875   5.556   2.234   1.825  1.4447 -1.1022 -0.7585
 3984TIP3    H238876   5.511   2.105   1.759 -1.4232 -0.2566 -0.5842
 3985TIP3   OH238877   6.697   7.745   5.208  0.0400 -0.1332  0.3900
 3985TIP3    H138878   6.663   7.656   5.210  0.1678 -0.2117 -0.7323
 3985TIP3    H238879   6.621   7.800   5.228 -0.2754 -0.4229 -0.0082
 3986TIP3   OH238880   8.496   1.544   0.256  0.2746  0.2330  0.3139
 3986TIP3    H138881   8.452   1.600   0.319  0.5043  0.9078 -0.1150
 3986TIP3    H238882   8.426   1.499   0.209  0.0878  0.2613  0.5676
 3987TIP3   OH238883   6.987   3.359   7.020 -0.4817  0.6742  0.2327
 3987TIP3    H138884   7.025   3.447   7.024  1.4807 -0.1528  2.1190
 3987TIP3    H238885   6.975   3.334   0.041 -2.2085 -0.5769 -0.2763
 3988TIP3   OH238886   1.923   1.645   0.744  0.6204 -0.2143  0.0980
 3988TIP3    H138887   1.982   1.602   0.683  2.6898  0.6523  1.3918
 3988TIP3    H238888   1.838   1.604   0.728  1.8153 -2.4871 -0.8953
 3989TIP3   OH238889   8.488   4.941   0.744  0.2375 -0.2557  0.0430
 3989TIP3    H138890   8.515   4.852   0.722  0.5700 -0.4591  1.2031
 3989TIP3    H238891   0.028   4.995   0.723  0.0427 -0.2516 -0.6464
 3990TIP3   OH238892   4.175   8.109   1.090 -0.3168 -0.0486 -0.2499
 3990TIP3    H138893   4.258   8.070   1.063  1.0678  1.8689  0.9585
 3990TIP3    H238894   4.115   8.092   1.017  0.4305 -3.3290 -0.2830
 3991TIP3   OH238895   5.813   6.616   1.751  0.3606  0.0586  0.0131
 3991TIP3    H138896   5.906   6.627   1.770  0.2185 -0.1855  0.8852
 3991TIP3    H238897   5.769   6.626   1.836 -0.3714 -0.2419 -0.3164
 3992TIP3   OH238898   0.833   7.018   5.189 -0.0723  0.0000 -0.1837
 3992TIP3    H138899   0.880   7.052   5.265  1.1248  0.1723 -0.9808
 3992TIP3    H238900   0.766   7.084   5.170 -0.1729  0.1054  0.5126
 3993TIP3   OH238901   0.372   7.966   1.112 -0.5442 -0.0141  0.0739
 3993TIP3    H138902   0.412   8.021   1.180  0.8093 -0.5133 -0.2952
 3993TIP3    H238903   0.397   7.877   1.135 -2.1264 -0.4445  0.2561
 3994TIP3   OH238904   0.259   0.558   5.846 -0.1168  0.4095 -0.9927
 3994TIP3    H138905   0.325   0.617   5.809  0.4147  0.8647  0.5981
 3994TIP3    H238906   0.309   0.495   5.897 -0.7931 -0.5224 -1.4448
 3995TIP3   OH238907   6.190   8.009   5.932 -0.3730 -0.2378  0.3111
 3995TIP3    H138908   6.209   7.934   5.875  0.3315 -1.7316  2.3886
 3995TIP3    H238909   6.219   7.981   6.019  1.2488  2.9797  0.9569
 3996TIP3   OH238910   1.512   0.625   1.456 -0.4143  0.3007  0.6493
 3996TIP3    H138911   1.419   0.612   1.441 -0.7422  0.4786  2.3459
 3996TIP3    H238912   1.537   0.693   1.393 -1.0934 -0.7049 -0.7631
 3997TIP3   OH238913   4.786   4.027   1.050 -0.1506 -0.3322 -0.0578
 3997TIP3    H138914   4.877   4.025   1.019  0.4081  0.2480  1.4502
 3997TIP3    H238915   4.775   3.943   1.097 -0.5225 -0.5711 -0.5679
 3998TIP3   OH238916   0.222   4.170   0.033 -0.0655  1.0788  0.2206
 3998TIP3    H138917   0.303   4.120   0.043 -0.8619 -0.5335 -0.9078
 3998TIP3    H238918   0.239   4.231   7.033 -0.4529 -0.7642 -1.5473
 3999TIP3   OH238919   3.592   5.376   0.817 -0.1283  0.1974 -0.2049
 3999TIP3    H138920   3.567   5.301   0.764 -0.0973 -0.0106  0.0777
 3999TIP3    H238921   3.602   5.342   0.905  0.1148  0.4873 -0.1178
 4000TIP3   OH238922   8.381   1.185   0.095 -0.5088 -1.0481 -0.3424
 4000TIP3    H138923   8.477   1.177   0.098 -0.1542  2.0371 -0.3283
 4000TIP3    H238924   8.357   1.149   0.009  0.2416 -4.3432  0.6840
 4001TIP3   OH238925   6.054   2.150   0.431  0.0016 -0.2975 -0.4196
 4001TIP3    H138926   6.130   2.103   0.395  0.8497 -1.1421  2.2603
 4001TIP3    H238927   5.979   2.096   0.406  0.7739 -2.0358  0.7955
 4002TIP3   OH238928   6.195   4.812   5.626 -0.1030 -0.1711 -0.1202
 4002TIP3    H138929   6.145   4.886   5.661  1.6513  0.3686  1.4386
 4002TIP3    H238930   6.234   4.845   5.546 -1.7873 -0.4604 -1.1182
 4003TIP3   OH238931   6.649   0.452   6.675 -0.3510  0.6520  0.9351
 4003TIP3    H138932   6.590   0.446   6.599  1.6881  2.4959 -0.9334
 4003TIP3    H238933   6.702   0.373   6.670 -0.5420  0.5341  0.7225
 4004TIP3   OH238934   6.257   6.859   0.135 -0.6975 -0.1562 -0.3699
 4004TIP3    H138935   6.269   6.954   0.139  1.1534 -0.3766  0.1586
 4004TIP3    H238936   6.294   6.826   0.217 -1.4539 -1.3438 -0.4673
 4005TIP3   OH238937   3.255   6.658   0.076 -0.4855  0.5851 -0.1624
 4005TIP3    H138938   3.258   6.703   7.063  0.9876  0.1609 -0.3675
 4005TIP3    H238939   3.346   6.659   0.108 -0.5660 -1.3643  0.2618
 4006TIP3   OH238940   5.788   3.652   1.174 -0.4206  0.3826  0.1623
 4006TIP3    H138941   5.807   3.723   1.112 -0.2430 -0.4174 -0.7330
 4006TIP3    H238942   5.721   3.599   1.130  1.0462 -1.2566 -0.2064
 4007TIP3   OH238943   2.015   6.752   5.919 -0.1921 -0.0418  0.1822
 4007TIP3    H138944   2.076   6.687   5.954 -2.0254 -0.5731  2.7641
 4007TIP3    H238945   2.008   6.818   5.987 -3.1578 -0.5370  0.5065
 4008TIP3   OH238946   4.062   1.420   1.589 -0.5511 -0.3246 -0.1719
 4008TIP3    H138947   4.058   1.429   1.684  2.0277  1.2377 -0.0815
 4008TIP3    H238948   4.133   1.357   1.573  0.9020  1.3909 -0.9649
 4009TIP3   OH238949   0.843   0.922   1.404  0.3935  0.2673 -0.4806
 4009TIP3    H138950   0.934   0.951   1.403  0.6477 -0.4918 -0.3910
 4009TIP3    H238951   0.815   0.932   1.495  0.2452  0.9124 -0.5938
 4010TIP3   OH238952   5.693   0.309   6.557  0.2122 -0.0919  0.3816
 4010TIP3    H138953   5.741   0.254   6.494 -0.4575 -2.7752  2.0237
 4010TIP3    H238954   5.629   0.356   6.504  1.6368  0.0827 -1.2767
 4011TIP3   OH238955   0.396   7.914   0.801  0.0690 -0.1568  0.1273
 4011TIP3    H138956   0.332   7.939   0.867  0.4133 -0.6216  0.6494
 4011TIP3    H238957   0.461   7.984   0.802  0.7288 -0.7541  1.1762
 4012TIP3   OH238958   4.473   5.631   6.738 -0.1734  0.7998  0.8400
 4012TIP3    H138959   4.423   5.552   6.718  3.6897 -1.8527  0.6257
 4012TIP3    H238960   4.451   5.650   6.829 -0.1688 -1.4471  1.3761
 4013TIP3   OH238961   4.436   7.962   1.239  0.2534  0.2388 -0.2114
 4013TIP3    H138962   4.444   7.867   1.250  1.8548  0.2086 -1.2152
 4013TIP3    H238963   4.420   7.995   1.327  1.1409 -0.8603  0.3967
 4014TIP3   OH238964   7.097   1.345   0.217 -0.3071  0.3220 -0.6065
 4014TIP3    H138965   7.180   1.299   0.228 -0.7270 -0.1853  0.5448
 4014TIP3    H238966   7.030   1.279   0.231 -0.9144  1.0640  0.0984
 4015TIP3   OH238967   5.160   1.852   0.893 -0.2993  0.0888 -0.4774
 4015TIP3    H138968   5.177   1.944   0.915  0.4636 -0.2742  0.5655
 4015TIP3    H238969   5.205   1.803   0.962 -1.3647 -1.0576 -0.5604
 4016TIP3   OH238970   4.479   4.321   5.855  0.1126  0.2376  0.5697
 4016TIP3    H138971   4.436   4.295   5.937  0.7497 -1.0512  0.5141
 4016TIP3    H238972   4.451   4.255   5.792  0.4407  0.6415  0.0018
 4017TIP3   OH238973   5.715   3.369   0.764 -0.0151  0.0335  0.0337
 4017TIP3    H138974   5.808   3.346   0.766  0.4048  1.6821  0.8413
 4017TIP3    H238975   5.707   3.433   0.693 -0.8166 -1.0836 -0.9305
 4018TIP3   OH238976   6.330   2.471   5.452 -0.4426  0.1050  0.9873
 4018TIP3    H138977   6.289   2.426   5.526  0.6349  0.5151  1.8660
 4018TIP3    H238978   6.347   2.402   5.388  1.0592 -0.7729  2.2580
 4019TIP3   OH238979   7.983   8.057   0.695 -0.7379 -0.4131 -0.5083
 4019TIP3    H138980   7.918   8.127   0.695  0.0294  0.3157  0.7154
 4019TIP3    H238981   8.028   8.066   0.611  0.2517  1.4399  0.1728
 4020TIP3   OH238982   4.040   3.208   6.303  0.1536 -0.0577  0.1933
 4020TIP3    H138983   4.041   3.117   6.274  0.1763  0.3874 -1.2973
 4020TIP3    H238984   3.972   3.211   6.370  1.3421 -1.5167  1.5395
 4021TIP3   OH238985   6.154   2.540   5.023 -0.0646  0.3413  0.5809
 4021TIP3    H138986   6.239   2.574   5.053 -0.0723 -0.4242  1.5268
 4021TIP3    H238987   6.090   2.589   5.074 -0.2232  1.2618 -0.4837
 4022TIP3   OH238988   7.650   5.698   0.012 -0.0075  0.6196 -0.4343
 4022TIP3    H138989   7.717   5.766   0.024 -1.2533  1.8041 -0.0118
 4022TIP3    H238990   7.584   5.738   7.028 -0.8375 -0.2046 -0.0601
 4023TIP3   OH238991   1.945   8.137   0.451 -0.3414 -0.3462 -0.0181
 4023TIP3    H138992   1.937   8.107   0.360  1.6392  0.5219 -0.5236
 4023TIP3    H238993   1.874   8.201   0.460  0.4427  0.8191 -1.5288
 4024TIP3   OH238994   2.507   3.141   5.230 -0.3899 -0.0651 -0.4716
 4024TIP3    H138995   2.529   3.233   5.214 -0.9955  0.3055  0.7348
 4024TIP3    H238996   2.445   3.119   5.159 -0.5318  0.5700 -0.5544
 4025TIP3   OH238997   5.633   6.273   0.852  0.4013  0.5454  0.7612
 4025TIP3    H138998   5.656   6.183   0.828  2.7283  0.7938  1.8564
 4025TIP3    H238999   5.569   6.264   0.922 -0.2171 -0.2213  0.1160
 4026TIP3   OH239000   0.652   5.741   5.130  0.1653 -0.0976 -0.2302
 4026TIP3    H139001   0.653   5.837   5.126 -0.0559 -0.1230 -0.9774
 4026TIP3    H239002   0.744   5.716   5.124  0.5411  0.1499  2.8653
 4027TIP3   OH239003   1.650   2.477   6.324  0.2038 -0.5153  0.6607
 4027TIP3    H139004   1.647   2.456   6.230  0.0235  0.5309  0.4190
 4027TIP3    H239005   1.597   2.556   6.332 -2.7854 -2.4747  2.1958
 4028TIP3   OH239006   5.508   0.630   6.895 -0.0085 -0.2027  0.4810
 4028TIP3    H139007   5.519   0.548   6.846  0.2715  1.0978 -1.7606
 4028TIP3    H239008   5.440   0.678   6.848  0.3749  1.1911  1.2803
 4029TIP3   OH239009   7.989   7.819   1.596 -0.1988  1.0588  0.0572
 4029TIP3    H139010   7.928   7.876   1.642 -0.8637  0.1185  0.3619
 4029TIP3    H239011   7.944   7.735   1.589 -0.4066  1.3003 -2.8890
 4030TIP3   OH239012   4.758   5.599   2.077 -0.0486 -0.7482  0.6100
 4030TIP3    H139013   4.683   5.659   2.081 -0.0946 -0.8955  2.5712
 4030TIP3    H239014   4.718   5.512   2.071  0.0132 -0.6966 -0.9074
 4031TIP3   OH239015   6.709   3.459   0.184 -0.4643 -0.0121  0.1344
 4031TIP3    H139016   6.713   3.544   0.140 -1.5169 -0.6191 -1.2241
 4031TIP3    H239017   6.655   3.474   0.261  1.4671  1.0920  1.3454
 4032TIP3   OH239018   4.118   7.056   5.726  0.0122  0.0436 -0.4513
 4032TIP3    H139019   4.170   6.997   5.782  1.8683  2.2156  0.2805
 4032TIP3    H239020   4.031   7.016   5.724  0.3961 -1.2086  2.3691
 4033TIP3   OH239021   2.411   3.192   5.689 -0.1148  0.6564 -0.6193
 4033TIP3    H139022   2.496   3.235   5.682  0.6425 -0.9467 -2.0856
 4033TIP3    H239023   2.426   3.103   5.658 -1.6605 -0.6502  2.0388
 4034TIP3   OH239024   0.122   4.680   1.879 -0.0479 -0.1325 -0.3866
 4034TIP3    H139025   0.080   4.612   1.932 -2.9168  2.0690  0.3669
 4034TIP3    H239026   0.051   4.720   1.830  1.5812  2.0919 -1.0698
 4035TIP3   OH239027   5.692   3.880   0.724 -0.1063 -0.2813  0.7352
 4035TIP3    H139028   5.627   3.936   0.680  1.4868  0.7846 -0.3661
 4035TIP3    H239029   5.773   3.895   0.676  0.6300 -2.8421  1.0294
 4036TIP3   OH239030   4.797   4.340   0.321  0.1205 -0.6537 -0.0457
 4036TIP3    H139031   4.790   4.309   0.411  0.4250 -0.7418 -0.0483
 4036TIP3    H239032   4.730   4.407   0.313  2.3613  2.0060  1.3688
 4037TIP3   OH239033   7.342   7.107   1.792  0.5169 -0.1616 -0.0001
 4037TIP3    H139034   7.377   7.057   1.718  0.4213  1.8275 -1.4667
 4037TIP3    H239035   7.250   7.121   1.770  0.4623  0.3548  0.5416
 4038TIP3   OH239036   0.857   4.400   1.272  0.0571 -0.1929  0.2924
 4038TIP3    H139037   0.818   4.473   1.320 -0.4644 -0.0465 -0.3359
 4038TIP3    H239038   0.951   4.407   1.289 -0.0614  0.1938  0.8167
 4039TIP3   OH239039   8.483   5.166   5.879 -0.4855  0.4540  0.4089
 4039TIP3    H139040   8.430   5.244   5.898 -0.4161  0.7053 -0.4004
 4039TIP3    H239041   8.519   5.141   5.964 -0.4193  1.3767  0.6701
 4040TIP3   OH239042   2.109   6.041   6.815 -0.1589 -0.8510  0.0515
 4040TIP3    H139043   2.136   6.083   6.733 -0.3287  0.5483  0.6798
 4040TIP3    H239044   2.044   6.100   6.852 -0.4472 -1.7086  0.9675
 4041TIP3   OH239045   1.292   4.981   5.189  0.0698 -0.5095  0.1130
 4041TIP3    H139046   1.234   4.985   5.265 -0.9754 -2.0001 -0.5529
 4041TIP3    H239047   1.320   5.071   5.175 -0.0041 -0.1528  2.0392
 4042TIP3   OH239048   3.551   8.032   5.630  0.2782 -0.0122  0.2903
 4042TIP3    H139049   3.629   8.083   5.607  0.2372  0.6584  1.5409
 4042TIP3    H239050   3.543   8.042   5.725  0.0955 -2.1423  0.5354
 4043TIP3   OH239051   6.074   4.842   0.772 -0.7980  0.0542  0.2025
 4043TIP3    H139052   6.018   4.850   0.695  0.1976  0.2921 -0.5185
 4043TIP3    H239053   6.145   4.905   0.757  1.8691 -2.9712 -0.8812
 4044TIP3   OH239054   2.953   3.795   0.006  0.0048  0.1863 -0.4821
 4044TIP3    H139055   2.883   3.819   7.017 -0.5233  2.9533  1.0634
 4044TIP3    H239056   3.023   3.858   7.059  0.2340  0.4227  1.0633
 4045TIP3   OH239057   1.997   1.448   5.315 -0.2401 -0.0902 -0.1805
 4045TIP3    H139058   2.056   1.380   5.281 -2.9012 -1.2908 -2.8816
 4045TIP3    H239059   2.009   1.522   5.255 -0.0841  0.4236  0.4720
 4046TIP3   OH239060   0.943   1.687   0.124 -0.1077  0.4367  0.0329
 4046TIP3    H139061   0.879   1.758   0.109 -0.5465 -0.1927 -1.2593
 4046TIP3    H239062   0.897   1.608   0.095  0.2597 -0.4513  1.7509
 4047TIP3   OH239063   1.480   0.284   5.978 -0.0284 -0.2770  0.4252
 4047TIP3    H139064   1.558   0.243   5.939  0.1959  1.9090 -1.6684
 4047TIP3    H239065   1.509   0.311   6.065  2.0387  1.5102 -0.6982
 4048TIP3   OH239066   6.743   1.770   5.157 -0.3883 -0.0412 -0.1075
 4048TIP3    H139067   6.785   1.855   5.144 -0.2142 -0.2851 -1.2361
 4048TIP3    H239068   6.815   1.710   5.177 -0.4853  0.0214  0.4548
 4049TIP3   OH239069   7.674   7.149   1.756 -0.1034 -0.0090 -0.5823
 4049TIP3    H139070   7.678   7.221   1.693 -1.6996 -0.1447 -0.8860
 4049TIP3    H239071   7.639   7.075   1.705 -1.1299 -0.2002  0.3687
 4050TIP3   OH239072   3.762   6.581   4.893  0.0243  0.1005 -0.0479
 4050TIP3    H139073   3.855   6.567   4.911  0.2008  0.0475 -0.9818
 4050TIP3    H239074   3.740   6.660   4.942  0.3873 -0.2711  0.7351
 4051TIP3   OH239075   1.187   7.307   6.305  0.5384 -0.2333 -0.1578
 4051TIP3    H139076   1.233   7.300   6.221 -1.5544  0.0348 -1.3845
 4051TIP3    H239077   1.100   7.270   6.288  0.2461 -0.6935  2.0690
 4052TIP3   OH239078   6.260   8.528   6.667  0.1859 -0.6753  0.4150
 4052TIP3    H139079   6.194   0.040   6.719  2.3807  1.1494  1.7510
 4052TIP3    H239080   6.316   8.485   6.731  0.7365 -1.6083 -0.6447
 4053TIP3   OH239081   5.278   4.387   0.143 -0.8136 -0.3178  0.3123
 4053TIP3    H139082   5.305   4.403   0.233 -2.0114  2.6332  0.2535
 4053TIP3    H239083   5.212   4.318   0.149 -2.8545  1.6530  2.1159
 4054TIP3   OH239084   3.889   6.210   5.904  0.3049 -0.0426 -0.4534
 4054TIP3    H139085   3.907   6.283   5.964  1.9379 -1.1972  0.5820
 4054TIP3    H239086   3.818   6.241   5.849  0.4011  2.0229  0.4667
 4055TIP3   OH239087   2.924   1.692   2.063 -1.0167  0.8445 -0.3104
 4055TIP3    H139088   2.940   1.603   2.030 -1.0357  0.2867  1.1035
 4055TIP3    H239089   2.832   1.709   2.040 -0.8857  0.6795 -0.9831
 4056TIP3   OH239090   4.416   2.396   0.942  0.7550 -0.3614  0.5597
 4056TIP3    H139091   4.503   2.378   0.907  1.5154  2.5824  0.6543
 4056TIP3    H239092   4.391   2.478   0.900 -1.9499 -1.0482  0.6657
 4057TIP3   OH239093   3.294   7.941   6.158 -0.0919 -0.0779  0.2287
 4057TIP3    H139094   3.287   7.884   6.235 -2.2765  0.4106  0.4636
 4057TIP3    H239095   3.245   7.895   6.090  1.3678 -0.2470 -0.7585
 4058TIP3   OH239096   1.711   8.475   7.068  0.3138  0.4526  0.4597
 4058TIP3    H139097   1.641   8.416   7.040 -0.4423  0.4230  2.2580
 4058TIP3    H239098   1.781   8.416   0.026  0.4965  0.4652  0.0424
 4059TIP3   OH239099   0.575   5.917   0.323  0.3742  0.0983  0.1675
 4059TIP3    H139100   0.539   5.945   0.407  0.7520 -0.8156  0.6504
 4059TIP3    H239101   0.500   5.885   0.274  0.2909 -0.2602  0.5295
 4060TIP3   OH239102   1.928   6.080   0.389  0.2079  0.9582  0.4855
 4060TIP3    H139103   1.955   6.133   0.313 -0.0040 -1.9063 -1.7534
 4060TIP3    H239104   2.009   6.037   0.417 -0.4911 -1.8371 -1.4330
 4061TIP3   OH239105   6.845   4.832   0.352 -0.7474 -0.5180 -0.4304
 4061TIP3    H139106   6.926   4.864   0.311  1.0670 -2.0507  1.6789
 4061TIP3    H239107   6.846   4.737   0.336 -2.3017 -0.5272 -0.5901
 4062TIP3   OH239108   1.823   7.003   6.242 -0.8012  0.1317  0.4027
 4062TIP3    H139109   1.737   7.043   6.252 -1.3339 -0.6681 -0.7548
 4062TIP3    H239110   1.810   6.912   6.269 -0.2310  0.0936  0.5560
 4063TIP3   OH239111   7.183   6.208   0.629  0.5539  0.1189  0.0019
 4063TIP3    H139112   7.235   6.274   0.584  1.4985 -0.1896  0.6231
 4063TIP3    H239113   7.124   6.258   0.685  3.1972  0.4983  2.6797
 4064TIP3   OH239114   1.992   4.677   0.753 -0.2889 -0.3191  0.4123
 4064TIP3    H139115   1.959   4.660   0.841 -0.1602  2.3770  1.0760
 4064TIP3    H239116   1.948   4.757   0.725  2.5047  1.0957 -0.3386
 4065TIP3   OH239117   6.149   6.533   7.027  0.3535  0.5344 -0.1057
 4065TIP3    H139118   6.138   6.562   6.936  0.2889  0.2014 -0.2061
 4065TIP3    H239119   6.223   6.473   7.023 -0.4411 -0.4636 -0.1592
 4066TIP3   OH239120   2.395   0.834   6.996 -0.4075  0.1180  0.4185
 4066TIP3    H139121   2.424   0.888   7.070  0.8945  0.4107 -0.2814
 4066TIP3    H239122   2.415   0.744   7.022  0.3855  0.2509  0.2895
 4067TIP3   OH239123   0.089   2.106   6.889 -0.0021  0.2442  0.0558
 4067TIP3    H139124   0.063   2.148   6.807 -1.1875 -1.0046 -0.2379
 4067TIP3    H239125   0.006   2.084   6.931  0.5784 -1.6218  0.2778
 4068TIP3   OH239126   3.205   6.990   6.112 -0.3888 -0.4807  0.6332
 4068TIP3    H139127   3.233   6.952   6.029 -0.7751  0.6708 -0.0500
 4068TIP3    H239128   3.163   6.917   6.159  1.5892 -1.6502  0.6987
 4069TIP3   OH239129   4.562   6.871   0.682 -0.1654  0.5297  0.3750
 4069TIP3    H139130   4.650   6.855   0.714  0.1235  0.0926 -0.6019
 4069TIP3    H239131   4.527   6.785   0.661 -0.4816  0.7693 -0.1114
 4070TIP3   OH239132   0.733   4.613   1.417  0.4850  0.4003 -0.2412
 4070TIP3    H139133   0.700   4.700   1.392 -1.1914  0.2190  1.1599
 4070TIP3    H239134   0.783   4.629   1.497 -0.8012 -0.0376  0.6819
 4071TIP3   OH239135   0.015   2.734   0.761 -0.5199 -0.3206 -0.2577
 4071TIP3    H139136   8.492   2.775   0.697  0.1044 -1.3173 -1.5183
 4071TIP3    H239137   8.524   2.771   0.845 -2.4744 -0.1923 -0.8800
 4072TIP3   OH239138   1.597   7.931   1.402  0.2201  0.8856 -0.0989
 4072TIP3    H139139   1.601   7.978   1.486 -0.0526  1.4443 -0.3951
 4072TIP3    H239140   1.598   8.000   1.336  3.2750  0.4186 -0.6833
 4073TIP3   OH239141   7.174   2.347   6.531 -0.1471 -0.1400 -0.4004
 4073TIP3    H139142   7.251   2.291   6.517  0.5663  0.5204  0.6923
 4073TIP3    H239143   7.175   2.364   6.625 -0.1708  1.9517 -0.7451
 4074TIP3   OH239144   3.498   2.618   0.665 -0.3091 -0.8632 -0.3005
 4074TIP3    H139145   3.586   2.656   0.668 -1.1443  1.1796  0.6725
 4074TIP3    H239146   3.450   2.667   0.731 -1.4441 -3.9927  1.3672
 4075TIP3   OH239147   6.079   1.587   6.786 -0.4890 -0.4643  0.2563
 4075TIP3    H139148   6.094   1.620   6.697  0.2667  0.5616  0.7555
 4075TIP3    H239149   5.988   1.559   6.785 -0.9472  0.9420 -0.4137
 4076TIP3   OH239150   7.841   8.106   5.408  0.1899 -0.4633  0.1507
 4076TIP3    H139151   7.798   8.103   5.493  1.8359  0.4844  1.0782
 4076TIP3    H239152   7.791   8.169   5.357  0.7430  1.0275  1.3871
 4077TIP3   OH239153   3.873   5.982   0.155  0.0036 -0.1889 -0.1229
 4077TIP3    H139154   3.914   5.897   0.166  1.2036  0.2361 -1.1062
 4077TIP3    H239155   3.795   5.965   0.102  0.4099 -0.6424 -0.5837
 4078TIP3   OH239156   4.922   0.950   6.192  0.5084  0.0271 -0.5408
 4078TIP3    H139157   4.928   0.909   6.105  0.7821  0.5396 -0.7638
 4078TIP3    H239158   4.846   1.008   6.186 -1.0736 -1.8052  0.3557
 4079TIP3   OH239159   0.617   0.427   0.796 -0.3877  0.4505  0.0875
 4079TIP3    H139160   0.626   0.495   0.730 -3.0240 -0.8231 -1.7493
 4079TIP3    H239161   0.565   0.468   0.866 -2.6070  0.2167 -1.3433
 4080TIP3   OH239162   5.476   4.378   7.003 -0.1995  0.3493 -0.3665
 4080TIP3    H139163   5.527   4.455   6.979 -0.6490  0.8389  0.2269
 4080TIP3    H239164   5.423   4.406   0.006  0.7320 -0.9500  0.8554
 4081TIP3   OH239165   1.480   1.259   6.632  0.7264  0.0441  0.1920
 4081TIP3    H139166   1.452   1.348   6.653 -2.3251 -0.4749 -1.1029
 4081TIP3    H239167   1.518   1.226   6.714 -0.2539  1.7494  1.4078
 4082TIP3   OH239168   7.451   0.272   0.682 -0.1656  0.1958 -0.2063
 4082TIP3    H139169   7.485   0.254   0.770  0.3885  1.4698 -0.1442
 4082TIP3    H239170   7.491   0.205   0.627 -0.8484 -0.8786  0.5606
 4083TIP3   OH239171   6.834   6.160   6.356  0.9285 -0.2655  1.0663
 4083TIP3    H139172   6.903   6.206   6.405  2.2120 -0.9622 -0.0067
 4083TIP3    H239173   6.868   6.071   6.346  0.6084 -0.2162 -0.8200
 4084TIP3   OH239174   3.090   5.134   5.751 -0.3337  0.5381 -0.0736
 4084TIP3    H139175   3.106   5.213   5.699 -1.9001  0.7860 -0.2119
 4084TIP3    H239176   3.024   5.159   5.815 -1.4150 -0.8351 -0.6002
 4085TIP3   OH239177   4.454   3.006   1.505 -0.6801  0.5696  0.1419
 4085TIP3    H139178   4.420   3.087   1.543 -1.1996 -0.9542  3.2250
 4085TIP3    H239179   4.376   2.954   1.488 -0.3522  0.6538 -1.8578
 4086TIP3   OH239180   5.958   5.515   5.590 -0.5681 -0.4036 -0.3133
 4086TIP3    H139181   5.922   5.604   5.597  1.7998  0.6707 -0.6411
 4086TIP3    H239182   5.899   5.461   5.643 -2.5470  1.1773 -0.7435
 4087TIP3   OH239183   0.448   0.537   1.070 -0.0422 -0.3282 -0.1641
 4087TIP3    H139184   0.420   0.448   1.088 -0.8649  0.2543  1.7193
 4087TIP3    H239185   0.468   0.574   1.156  0.7203  1.1694 -0.9308
 4088TIP3   OH239186   4.453   3.568   5.344  0.5215 -0.2172 -0.7149
 4088TIP3    H139187   4.546   3.576   5.363  0.3906 -1.3802  0.5751
 4088TIP3    H239188   4.413   3.542   5.427 -0.7807 -0.8967 -1.5089
 4089TIP3   OH239189   3.142   2.940   1.629 -0.3437 -0.3414  0.4115
 4089TIP3    H139190   3.054   2.969   1.652 -0.7297 -0.5673 -0.7036
 4089TIP3    H239191   3.146   2.849   1.658 -0.1429 -0.0589  1.2979
 4090TIP3   OH239192   5.088   5.516   1.387 -0.1731  0.7000  0.1645
 4090TIP3    H139193   5.119   5.536   1.298 -0.2768 -1.0176 -0.2978
 4090TIP3    H239194   5.009   5.568   1.397 -1.3025 -0.5546 -1.5741
 4091TIP3   OH239195   2.865   2.964   1.315  0.4563 -0.6155 -0.4625
 4091TIP3    H139196   2.778   2.924   1.307  0.2545 -0.0785 -1.0436
 4091TIP3    H239197   2.847   3.057   1.330  0.9264 -0.6328  0.2194
 4092TIP3   OH239198   5.233   7.363   0.938  0.0592  0.2576 -0.2371
 4092TIP3    H139199   5.157   7.327   0.891 -0.8230  0.7592  0.7563
 4092TIP3    H239200   5.210   7.353   1.030  1.0912  0.6902  0.0723
 4093TIP3   OH239201   8.473   6.341   0.369  0.3951 -0.2279  0.2640
 4093TIP3    H139202   8.391   6.359   0.323  0.5502 -1.9818 -0.7747
 4093TIP3    H239203   0.006   6.374   0.310  0.5001  0.0106  0.5133
 4094TIP3   OH239204   3.877   6.326   0.748 -0.3381  0.2111 -0.0353
 4094TIP3    H139205   3.887   6.398   0.810  0.7546  1.3469 -1.4474
 4094TIP3    H239206   3.898   6.365   0.663  1.1779 -1.9735 -0.7404
 4095TIP3   OH239207   8.006   7.018   0.505  0.0967  0.0798 -0.1251
 4095TIP3    H139208   8.015   7.109   0.476 -1.0104  0.2982  0.1666
 4095TIP3    H239209   8.007   7.024   0.601 -0.7206 -0.1276 -0.1009
 4096TIP3   OH239210   4.108   5.372   6.823 -0.1690  0.0581  0.1586
 4096TIP3    H139211   4.084   5.449   6.772  1.1959  0.6967  0.4300
 4096TIP3    H239212   4.054   5.376   6.901  0.5317  1.2617  0.6026
 4097TIP3   OH239213   5.670   4.076   6.263 -0.1712 -0.5427 -0.0628
 4097TIP3    H139214   5.668   4.170   6.283  0.6028 -0.7024  0.8295
 4097TIP3    H239215   5.609   4.037   6.325 -1.6535 -0.4787 -1.4333
 4098TIP3   OH239216   4.717   0.244   0.360 -0.2481 -0.2031  0.1692
 4098TIP3    H139217   4.654   0.316   0.368 -0.9998 -0.9933  1.8433
 4098TIP3    H239218   4.719   0.225   0.266  0.2548  2.2027 -0.3773
 4099TIP3   OH239219   2.701   0.846   0.910 -0.2318  0.0454  0.0595
 4099TIP3    H139220   2.701   0.868   1.003 -1.4330  2.3966 -0.4230
 4099TIP3    H239221   2.672   0.754   0.907 -1.8831  0.4278  1.9330
 4100TIP3   OH239222   1.928   0.210   0.356  0.0231 -0.8362 -0.0283
 4100TIP3    H139223   1.899   0.290   0.399  0.1561  0.2844 -1.9015
 4100TIP3    H239224   1.956   0.153   0.427 -0.4193  0.6440  1.3837
 4101TIP3   OH239225   8.038   1.074   1.706  0.4506  0.0628 -0.9539
 4101TIP3    H139226   8.017   1.165   1.724  0.4581  0.1170 -1.2094
 4101TIP3    H239227   8.126   1.076   1.668  0.8138 -0.1381 -0.1334
 4102TIP3   OH239228   3.265   1.258   0.521  0.1464  0.0780  0.2906
 4102TIP3    H139229   3.321   1.183   0.539  0.2797  0.5125  1.7854
 4102TIP3    H239230   3.267   1.311   0.601 -1.4172  0.7330 -0.0481
 4103TIP3   OH239231   6.998   6.945   0.499  0.3616 -0.5164  0.5259
 4103TIP3    H139232   7.058   6.886   0.451  0.8161 -0.3602  0.8925
 4103TIP3    H239233   6.959   6.999   0.431  1.6404  0.2800  0.3827
 4104TIP3   OH239234   4.958   1.762   6.413 -0.3717 -0.2862 -0.0867
 4104TIP3    H139235   5.011   1.771   6.334 -0.1934  1.8378  0.2024
 4104TIP3    H239236   4.869   1.784   6.385 -0.4052 -0.0702  0.1826
 4105TIP3   OH239237   5.049   1.905   0.046 -0.1154  0.0438  0.5112
 4105TIP3    H139238   5.099   1.854   0.110 -0.0505 -0.9591 -0.3076
 4105TIP3    H239239   5.041   1.846   7.041 -0.4095  1.1019 -0.2996
 4106TIP3   OH239240   3.090   6.013   6.579 -0.2012  0.1708 -0.0620
 4106TIP3    H139241   3.072   5.919   6.571  0.3707  0.1199 -0.9585
 4106TIP3    H239242   3.182   6.017   6.606 -0.2217  0.4683 -0.0345
 4107TIP3   OH239243   0.992   1.524   6.648  0.1151 -0.3407 -0.2305
 4107TIP3    H139244   0.966   1.432   6.642  3.6749 -1.7804  2.5892
 4107TIP3    H239245   1.029   1.544   6.561 -0.7107 -1.5465 -0.8833
 4108TIP3   OH239246   7.511   6.344   0.776 -0.0514  0.1379  0.0852
 4108TIP3    H139247   7.532   6.295   0.856 -1.9539 -0.8197  0.0559
 4108TIP3    H239248   7.594   6.348   0.728  0.2084 -3.1554  0.0452
 4109TIP3   OH239249   2.477   3.979   5.885  0.2944 -0.3069 -0.3001
 4109TIP3    H139250   2.486   4.071   5.911  0.3060 -0.1667 -0.7840
 4109TIP3    H239251   2.565   3.952   5.860  0.1714 -0.2492 -0.8007
 4110TIP3   OH239252   8.319   4.136   0.969 -0.4073  0.0200 -0.3907
 4110TIP3    H139253   8.323   4.232   0.974 -0.6371 -0.0177  0.9343
 4110TIP3    H239254   8.407   4.110   0.941  0.4190  0.5369  1.5368
 4111TIP3   OH239255   2.392   7.500   6.180 -0.2866 -0.7755 -0.0197
 4111TIP3    H139256   2.450   7.538   6.113 -0.0679 -1.2945 -0.1310
 4111TIP3    H239257   2.421   7.409   6.187 -0.5102 -0.8016  0.5666
 4112TIP3   OH239258   0.697   0.079   6.086  0.5154 -0.3700  0.3144
 4112TIP3    H139259   0.670   0.060   5.996  0.9233  0.3068  0.0337
 4112TIP3    H239260   0.787   0.111   6.077 -0.4504  2.7918  0.5639
 4113TIP3   OH239261   4.985   0.101   6.827 -0.1713  0.2758  0.0021
 4113TIP3    H139262   4.993   0.006   6.827  0.1278  0.2385 -2.4776
 4113TIP3    H239263   5.008   0.127   6.738  0.9659  2.7917  0.9381
 4114TIP3   OH239264   0.443   6.267   7.065 -0.0494  0.0365  0.1955
 4114TIP3    H139265   0.482   6.309   0.071  1.3804 -1.1523  0.1602
 4114TIP3    H239266   0.504   6.197   7.043 -1.6204 -1.1115 -0.6398
 4115TIP3   OH239267   2.871   6.756   0.703  0.3930 -0.0857 -0.5284
 4115TIP3    H139268   2.859   6.691   0.772 -2.9730 -0.4523 -1.2937
 4115TIP3    H239269   2.809   6.826   0.725 -0.5814 -0.0915 -2.9385
 4116TIP3   OH239270   2.806   6.006   0.144 -0.0310  0.7978 -0.1969
 4116TIP3    H139271   2.771   6.005   0.233  0.2349 -1.0640 -0.0750
 4116TIP3    H239272   2.875   6.072   0.146 -0.8715  1.6811  0.6198
 4117TIP3   OH239273   5.158   4.664   5.432  0.1925 -0.0642 -0.3222
 4117TIP3    H139274   5.126   4.585   5.388  0.0573 -0.0681 -0.2195
 4117TIP3    H239275   5.146   4.734   5.368 -0.0805 -0.0558 -0.2643
 4118TIP3   OH239276   7.153   2.690   1.933  0.8427  0.2759 -0.0505
 4118TIP3    H139277   7.189   2.726   2.014  0.4897  1.1121 -0.2523
 4118TIP3    H239278   7.229   2.673   1.878  0.9721  2.1235 -0.5138
 4119TIP3   OH239279   5.746   8.296   4.686  0.2575  0.0041 -0.4921
 4119TIP3    H139280   5.796   8.272   4.607 -0.8598  0.0765 -1.2525
 4119TIP3    H239281   5.669   8.341   4.652 -0.1214  0.2585  0.6758
 4120TIP3   OH239282   4.608   3.141   0.231  0.2385 -0.4975  0.2424
 4120TIP3    H139283   4.652   3.217   0.193  1.3664  0.1196  2.6187
 4120TIP3    H239284   4.642   3.066   0.182 -0.5226  0.4116 -1.8023
 4121TIP3   OH239285   3.704   5.374   5.404 -0.0174 -0.4524 -0.1104
 4121TIP3    H139286   3.731   5.283   5.398 -2.1966 -1.1055 -1.1848
 4121TIP3    H239287   3.635   5.383   5.338  0.8340  2.2562 -0.7752
 4122TIP3   OH239288   2.439   4.228   5.695  0.2023 -0.0897  0.9102
 4122TIP3    H139289   2.513   4.242   5.636 -0.7123  2.6930  0.3054
 4122TIP3    H239290   2.471   4.259   5.780 -0.3877  1.7136  0.5186
 4123TIP3   OH239291   1.069   1.957   5.681 -0.2863 -0.2886 -0.9102
 4123TIP3    H139292   1.025   1.970   5.597 -0.2342 -0.2891 -0.9376
 4123TIP3    H239293   1.141   1.897   5.661 -0.9499 -1.1982 -0.6606
 4124TIP3   OH239294   0.061   6.053   0.378 -0.5145  0.5023 -0.1349
 4124TIP3    H139295   0.082   6.073   0.287  0.8914  0.1643  0.0941
 4124TIP3    H239296   0.025   6.134   0.413 -0.1867  0.9185 -0.7461
 4125TIP3   OH239297   2.638   6.335   0.623 -0.2243  0.0191  0.2263
 4125TIP3    H139298   2.621   6.428   0.635 -0.8339 -0.2587  1.8345
 4125TIP3    H239299   2.681   6.329   0.538 -0.0703  1.7695  0.1394
 4126TIP3   OH239300   0.162   2.212   5.761  0.1659 -0.3007 -0.4029
 4126TIP3    H139301   0.121   2.151   5.700  2.3720 -1.3676 -0.9221
 4126TIP3    H239302   0.098   2.222   5.831 -1.3331 -1.1456 -1.5808
 4127TIP3   OH239303   5.381   0.852   6.081 -0.2100  0.2590  0.0266
 4127TIP3    H139304   5.433   0.785   6.127 -0.4578 -0.1748 -0.3219
 4127TIP3    H239305   5.323   0.803   6.024 -0.7790  0.7568  0.1645
 4128TIP3   OH239306   0.756   8.150   6.545 -0.4491 -0.4223  0.4952
 4128TIP3    H139307   0.805   8.098   6.480 -1.8407  1.0166 -1.8676
 4128TIP3    H239308   0.812   8.225   6.563 -1.5351  1.1392 -2.0809
 4129TIP3   OH239309   7.116   5.782   0.960 -0.3722 -0.8080  0.0620
 4129TIP3    H139310   7.151   5.694   0.963  1.2516 -0.2733 -1.3346
 4129TIP3    H239311   7.180   5.836   1.007 -1.5300 -0.4067  1.2322
 4130TIP3   OH239312   7.391   3.727   6.769 -0.4011  0.2929 -0.5136
 4130TIP3    H139313   7.349   3.788   6.709  1.6801  2.9344  0.5391
 4130TIP3    H239314   7.408   3.778   6.848  1.2662 -1.6949  0.5282
 4131TIP3   OH239315   0.635   5.175   0.696  0.1239 -0.2033 -0.3420
 4131TIP3    H139316   0.544   5.201   0.684 -0.3601 -1.5700  0.2456
 4131TIP3    H239317   0.633   5.110   0.766  1.6313  0.1976  0.1026
 4132TIP3   OH239318   5.910   8.168   6.574 -0.2599 -0.0248 -0.1488
 4132TIP3    H139319   5.949   8.255   6.577 -0.4490  0.0614 -0.1438
 4132TIP3    H239320   5.900   8.142   6.665 -1.4715  0.5288 -0.0975
 4133TIP3   OH239321   8.373   6.264   4.908 -0.0030  0.3868  0.2619
 4133TIP3    H139322   8.321   6.197   4.953 -1.2845  0.1622 -1.4505
 4133TIP3    H239323   8.441   6.215   4.862 -1.5307  0.0470 -1.8023
 4134TIP3   OH239324   3.577   0.738   6.401  0.3355  0.0685 -0.7210
 4134TIP3    H139325   3.520   0.711   6.329  0.9373  1.6447 -1.8672
 4134TIP3    H239326   3.647   0.787   6.358  0.4492  1.5059  0.9951
 4135TIP3   OH239327   2.833   8.293   0.121 -0.1123 -0.0559  0.1676
 4135TIP3    H139328   2.899   8.260   0.182 -0.0573 -1.9585 -0.8460
 4135TIP3    H239329   2.884   8.323   0.046 -0.3228 -0.2001 -0.0327
 4136TIP3   OH239330   7.656   1.090   1.360  0.4645 -0.3876 -0.0401
 4136TIP3    H139331   7.684   1.054   1.443  2.5207 -1.0952 -0.9737
 4136TIP3    H239332   7.734   1.133   1.325 -0.9583  1.9373 -0.5811
 4137TIP3   OH239333   7.725   3.170   6.609 -0.6711  0.1205 -0.6343
 4137TIP3    H139334   7.778   3.247   6.591  0.0106 -0.2149 -0.0897
 4137TIP3    H239335   7.701   3.137   6.523 -1.9992  1.6135 -0.8996
 4138TIP3   OH239336   6.506   1.913   5.144 -0.6470 -0.3654  0.2144
 4138TIP3    H139337   6.542   1.976   5.081 -0.7130 -0.7954 -0.2548
 4138TIP3    H239338   6.574   1.847   5.153 -0.1115  0.3295  1.5527
 4139TIP3   OH239339   5.956   3.046   0.303 -0.4777 -0.5306  0.1534
 4139TIP3    H139340   5.980   3.138   0.313 -0.3784 -0.5496  0.0832
 4139TIP3    H239341   6.014   3.013   0.234 -0.4753 -0.6594  0.2173
 4140TIP3   OH239342   4.467   0.378   6.790 -0.0197 -0.0156 -0.2693
 4140TIP3    H139343   4.539   0.329   6.830  0.4952 -0.3417 -1.5295
 4140TIP3    H239344   4.469   0.463   6.833  0.2365 -0.4863  0.6790
 4141TIP3   OH239345   4.010   5.357   1.000 -0.0070 -0.4729 -0.1361
 4141TIP3    H139346   4.043   5.270   0.977  0.4292 -0.5697  0.8204
 4141TIP3    H239347   3.936   5.340   1.058 -0.1057 -0.2166 -0.1890
 4142TIP3   OH239348   4.437   3.830   1.605 -0.0640  0.2834 -0.2260
 4142TIP3    H139349   4.460   3.772   1.678 -1.6375 -1.9719 -1.3978
 4142TIP3    H239350   4.522   3.859   1.571  0.7316  2.0431  2.8430
 4143TIP3   OH239351   7.075   3.686   6.341 -0.3087 -0.3960 -0.1132
 4143TIP3    H139352   7.130   3.761   6.316 -0.9012 -0.9245 -3.4796
 4143TIP3    H239353   7.022   3.719   6.413  0.3231  2.0479 -0.6530
 4144TIP3   OH239354   7.525   5.899   5.997  0.2453 -0.1449  0.4184
 4144TIP3    H139355   7.576   5.903   6.078 -0.8115  0.5344  1.0720
 4144TIP3    H239356   7.581   5.944   5.932  0.7509  0.0242  0.9584
 4145TIP3   OH239357   0.689   1.976   6.553 -0.5329 -0.0656  0.4879
 4145TIP3    H139358   0.630   1.901   6.551 -1.2938  0.5059  0.9983
 4145TIP3    H239359   0.692   2.008   6.463 -0.7585 -0.2803  0.4034
 4146TIP3   OH239360   3.541   3.471   1.511  0.5316 -0.4680  0.4975
 4146TIP3    H139361   3.588   3.545   1.551 -0.5887 -0.1589  1.2983
 4146TIP3    H239362   3.454   3.506   1.491  0.2393 -1.3598  0.1759
 4147TIP3   OH239363   5.126   4.587   0.371 -0.3967 -0.7676  0.2813
 4147TIP3    H139364   5.137   4.681   0.363  1.5733 -1.0195 -0.5344
 4147TIP3    H239365   5.071   4.563   0.297 -3.0542 -0.0149  1.8842
 4148TIP3   OH239366   2.134   0.794   1.003 -0.0734  0.1105 -0.1744
 4148TIP3    H139367   2.228   0.809   1.013 -0.4321  1.9540  0.8765
 4148TIP3    H239368   2.093   0.877   1.028 -1.9362 -0.1374 -2.0997
 4149TIP3   OH239369   5.460   7.704   6.309  0.5271 -1.0561  0.4362
 4149TIP3    H139370   5.479   7.772   6.244  0.3938 -1.9366 -0.5491
 4149TIP3    H239371   5.493   7.740   6.391  0.2631  0.2924 -0.0155
 4150TIP3   OH239372   1.512   3.256   1.492 -0.0031  0.1297 -0.0474
 4150TIP3    H139373   1.493   3.333   1.438 -0.0110 -0.5740 -1.0782
 4150TIP3    H239374   1.604   3.265   1.516  0.2309  0.0284 -0.8947
 4151TIP3   OH239375   6.201   0.312   5.985  0.2447 -0.6383  0.4319
 4151TIP3    H139376   6.113   0.298   6.021  0.2253 -0.0862  0.6063
 4151TIP3    H239377   6.189   0.376   5.915  0.7902  1.1454  1.8707
 4152TIP3   OH239378   4.190   6.377   5.272 -0.0873 -0.1572  0.0504
 4152TIP3    H139379   4.261   6.354   5.212 -0.5007  1.6054 -1.2119
 4152TIP3    H239380   4.167   6.295   5.314  3.4928 -0.6111  1.4751
 4153TIP3   OH239381   2.676   3.988   0.082  0.0861  0.0852  0.1553
 4153TIP3    H139382   2.644   3.899   0.070 -0.9981  0.2092  1.7803
 4153TIP3    H239383   2.598   4.043   0.076  0.4456  0.7223  1.0053
 4154TIP3   OH239384   7.935   2.374   1.609 -0.2865 -0.1663 -0.3455
 4154TIP3    H139385   7.981   2.297   1.642  1.5404  1.2418  0.5736
 4154TIP3    H239386   7.964   2.383   1.518 -0.8666 -0.8007 -0.6006
 4155TIP3   OH239387   3.418   3.877   6.475  0.4418 -0.1724 -0.0001
 4155TIP3    H139388   3.443   3.969   6.468  0.2252 -0.0905  0.3117
 4155TIP3    H239389   3.366   3.871   6.555  0.4761 -0.5707 -0.0017
 4156TIP3   OH239390   6.265   0.666   6.662 -0.5498  0.4341 -0.1351
 4156TIP3    H139391   6.233   0.720   6.590 -0.9427  0.4292  0.0340
 4156TIP3    H239392   6.276   0.728   6.735  1.4098  0.7603 -0.6348
 4157TIP3   OH239393   5.443   3.753   6.211  1.0389  0.5499  0.0498
 4157TIP3    H139394   5.450   3.831   6.266  1.1200  0.5217  0.0800
 4157TIP3    H239395   5.528   3.710   6.220  0.8334  0.2093  0.4053
 4158TIP3   OH239396   0.493   6.644   6.650  0.7510  0.1608  0.1950
 4158TIP3    H139397   0.452   6.718   6.694  3.0568  0.8704  1.2881
 4158TIP3    H239398   0.548   6.683   6.582  1.2215 -0.6267  0.1132
 4159TIP3   OH239399   1.205   2.746   5.633  0.3594 -0.1322  0.6159
 4159TIP3    H139400   1.247   2.660   5.629 -0.6576 -0.6850  1.2887
 4159TIP3    H239401   1.206   2.768   5.726 -0.2723  0.1260  0.5630
 4160TIP3   OH239402   3.462   1.707   0.828  0.4701  0.3134 -0.4692
 4160TIP3    H139403   3.522   1.754   0.885 -0.1588  0.4021  0.1372
 4160TIP3    H239404   3.510   1.629   0.801  0.8081  0.3161  0.1100
 4161TIP3   OH239405   7.709   5.016   5.243 -0.3039 -0.1313  0.3132
 4161TIP3    H139406   7.728   5.077   5.172 -0.5892  0.9393  1.1325
 4161TIP3    H239407   7.793   4.972   5.258 -0.3982 -0.8581 -1.1018
 4162TIP3   OH239408   4.234   0.096   6.903  0.0603  0.6586  0.0190
 4162TIP3    H139409   4.313   0.043   6.891 -0.9090 -0.6577 -0.9766
 4162TIP3    H239410   4.167   0.032   6.928 -1.0132  1.5179 -0.5728
 4163TIP3   OH239411   6.184   3.433   5.061  0.3614 -0.2746 -0.5581
 4163TIP3    H139412   6.149   3.371   4.997  0.8590 -2.5531  1.2588
 4163TIP3    H239413   6.270   3.398   5.084  0.9618  1.4806  0.0805
 4164TIP3   OH239414   7.837   3.946   2.248  0.1830 -0.2201  0.3861
 4164TIP3    H139415   7.852   4.026   2.198 -1.5979 -0.7993 -1.2078
 4164TIP3    H239416   7.925   3.913   2.268  0.9422  1.5895  0.2346
 4165TIP3   OH239417   5.551   6.353   1.384  0.3794  0.0896  0.0799
 4165TIP3    H139418   5.534   6.344   1.290 -0.1367  0.7042  0.1119
 4165TIP3    H239419   5.582   6.442   1.394 -0.1278  0.2099  0.5757
 4166TIP3   OH239420   3.929   1.768   0.023 -0.5435 -0.1071  0.1325
 4166TIP3    H139421   4.002   1.720   7.054  0.0419  0.2272  0.7816
 4166TIP3    H239422   3.856   1.706   0.021  0.5746 -1.6706  2.3799
 4167TIP3   OH239423   6.647   0.859   6.774 -0.7199  0.3285 -0.3804
 4167TIP3    H139424   6.578   0.888   6.714 -0.6310  0.2026 -0.5450
 4167TIP3    H239425   6.612   0.781   6.815 -1.2522  1.0633  0.5967
 4168TIP3   OH239426   3.302   8.348   1.272 -0.2770 -0.2300 -0.0008
 4168TIP3    H139427   3.305   8.268   1.324 -0.3098  0.4748  1.1466
 4168TIP3    H239428   3.372   8.403   1.309 -2.1965  1.4602  1.3430
 4169TIP3   OH239429   2.463   0.521   5.640  0.0742 -0.0126 -0.8896
 4169TIP3    H139430   2.390   0.459   5.644 -0.3405  0.5117  2.0819
 4169TIP3    H239431   2.422   0.604   5.618  0.0063 -0.0488 -0.9005
 4170TIP3   OH239432   3.369   3.061   1.687 -0.3986 -0.0612 -0.7788
 4170TIP3    H139433   3.369   3.023   1.774 -0.3372  1.5718 -0.0167
 4170TIP3    H239434   3.286   3.036   1.648 -0.6675 -0.3382 -0.0276
 4171TIP3   OH239435   2.375   4.528   6.072  0.0376 -0.3175 -0.3722
 4171TIP3    H139436   2.404   4.613   6.039 -0.9446  0.7571  1.4228
 4171TIP3    H239437   2.313   4.497   6.006  1.1524 -0.1408 -1.5422
 4172TIP3   OH239438   6.802   7.630   0.310 -0.2378  0.0797  0.0136
 4172TIP3    H139439   6.791   7.616   0.404  1.0480  1.5359  0.4174
 4172TIP3    H239440   6.870   7.568   0.285 -0.4694 -0.1980  0.0587
 4173TIP3   OH239441   0.023   0.818   1.540 -0.5736 -0.2749  0.0717
 4173TIP3    H139442   0.073   0.876   1.597 -0.8977 -1.8220  2.0519
 4173TIP3    H239443   0.056   0.837   1.452  1.8546  0.3804  1.0316
 4174TIP3   OH239444   0.106   6.002   1.541 -0.8490 -0.1085 -0.3769
 4174TIP3    H139445   0.046   6.056   1.593 -0.5465  0.6053 -0.7653
 4174TIP3    H239446   0.128   5.929   1.599 -1.8215 -0.1979 -0.1041
 4175TIP3   OH239447   6.975   0.273   1.233 -0.1008  0.3373 -0.4148
 4175TIP3    H139448   6.902   0.232   1.278 -1.0744  2.2189 -0.1957
 4175TIP3    H239449   6.953   0.266   1.140  0.4709 -0.8873 -0.4888
 4176TIP3   OH239450   1.459   8.506   6.806  0.0809  0.2388 -0.3434
 4176TIP3    H139451   1.514   0.014   6.872 -0.7361 -0.4380  0.8335
 4176TIP3    H239452   1.377   8.490   6.852 -0.2954 -0.8044 -1.3570
 4177TIP3   OH239453   7.685   8.160   0.357  0.4848  0.4618 -0.4283
 4177TIP3    H139454   7.772   8.181   0.392  0.4551  0.9647 -0.6401
 4177TIP3    H239455   7.641   8.245   0.352 -0.0626  0.1912 -0.2103
 4178TIP3   OH239456   2.283   3.221   5.928 -0.0380  0.3358  0.4232
 4178TIP3    H139457   2.229   3.143   5.936 -0.0379  0.2820 -0.0696
 4178TIP3    H239458   2.338   3.204   5.852 -1.7886  1.8569 -1.2893
 4179TIP3   OH239459   2.072   3.778   6.115  0.0641  0.2364  0.3319
 4179TIP3    H139460   2.116   3.789   6.199  0.0579  1.1497  0.2318
 4179TIP3    H239461   2.129   3.822   6.052 -1.5131  2.5455  0.3783
 4180TIP3   OH239462   4.624   8.446   0.104 -0.2937  0.3026 -0.1829
 4180TIP3    H139463   4.646   0.004   0.104  1.7804 -0.1469 -0.2082
 4180TIP3    H239464   4.690   8.406   0.159 -0.8916 -1.2277 -0.5373
 4181TIP3   OH239465   4.051   6.512   1.123  0.1487  0.2770 -0.1997
 4181TIP3    H139466   4.075   6.604   1.134  0.1871  0.3166 -0.6154
 4181TIP3    H239467   3.957   6.510   1.139  0.2659  0.2704  0.5179
 4182TIP3   OH239468   2.865   4.977   5.632  0.3216  0.0890 -0.0309
 4182TIP3    H139469   2.789   5.023   5.668  0.4270  0.8072 -0.7072
 4182TIP3    H239470   2.938   5.005   5.688 -0.1505 -1.9901  1.7726
 4183TIP3   OH239471   7.653   8.079   6.419  0.4115  0.4220 -0.2292
 4183TIP3    H139472   7.564   8.083   6.384  0.4891  2.0708 -0.3481
 4183TIP3    H239473   7.650   8.132   6.498  0.6740 -1.7552  1.3194
 4184TIP3   OH239474   2.461   6.096   6.427 -0.0357 -0.1690 -0.0008
 4184TIP3    H139475   2.376   6.108   6.469  1.4275 -1.7247  3.8780
 4184TIP3    H239476   2.505   6.181   6.436  0.1842 -0.4196  1.6926
 4185TIP3   OH239477   4.007   6.184   0.024  0.2012  0.0920  0.5013
 4185TIP3    H139478   3.990   6.102   0.072  0.7964 -1.0391 -1.1152
 4185TIP3    H239479   3.946   6.247   0.063 -1.4026 -1.5231  0.7919
 4186TIP3   OH239480   8.160   2.643   1.302  0.0157  0.3050  0.1755
 4186TIP3    H139481   8.149   2.662   1.209  2.0256  0.9970  0.0340
 4186TIP3    H239482   8.203   2.721   1.337 -0.0871 -0.2337  1.5410
 4187TIP3   OH239483   7.334   1.215   0.265 -0.0239 -0.3236  0.6538
 4187TIP3    H139484   7.428   1.213   0.281  0.2623  0.3479 -0.7476
 4187TIP3    H239485   7.304   1.127   0.287  1.2012 -1.0110 -0.2965
 4188TIP3   OH239486   1.107   7.555   6.128 -0.4273 -0.3674 -0.3041
 4188TIP3    H139487   1.020   7.593   6.144 -0.4559  0.4736 -2.1959
 4188TIP3    H239488   1.103   7.523   6.038  0.7760 -1.6661  0.0666
 4189TIP3   OH239489   2.584   1.152   0.221 -0.2433  0.3674  0.0027
 4189TIP3    H139490   2.673   1.155   0.188 -0.8461  2.2682 -1.6723
 4189TIP3    H239491   2.550   1.241   0.207 -2.6123 -0.4667 -0.0929
 4190TIP3   OH239492   3.073   0.303   6.957 -0.3716  0.2303 -0.2592
 4190TIP3    H139493   3.093   0.382   7.008  1.9920  0.5807 -1.5979
 4190TIP3    H239494   3.054   0.336   6.869 -1.5345 -0.5784 -0.3327
 4191TIP3   OH239495   8.363   1.481   1.788  0.4112  0.5536  0.1229
 4191TIP3    H139496   8.419   1.504   1.863 -0.1076 -0.7735  0.9533
 4191TIP3    H239497   8.372   1.556   1.729  1.3130  1.3795  1.2269
 4192TIP3   OH239498   3.828   5.332   5.894  0.1785 -0.5889 -0.5633
 4192TIP3    H139499   3.916   5.371   5.898 -0.6434  1.4586 -1.1328
 4192TIP3    H239500   3.824   5.291   5.808 -0.7292  2.9113 -2.3774
 4193TIP3   OH239501   5.192   8.359   0.092  0.1540 -0.6060  0.1398
 4193TIP3    H139502   5.213   8.280   0.043  0.5746  0.5742 -1.7334
 4193TIP3    H239503   5.255   8.424   0.060  1.2279 -0.0234  3.1766
 4194TIP3   OH239504   0.626   5.847   5.646  0.0323  0.1092  0.6441
 4194TIP3    H139505   0.614   5.753   5.636  1.7255  0.0049 -1.0929
 4194TIP3    H239506   0.567   5.886   5.582  0.6903  0.1017  0.0106
 4195TIP3   OH239507   6.547   0.007   2.060  0.2287  0.5264 -0.1710
 4195TIP3    H139508   6.549   8.477   1.990 -2.9504  1.9185 -1.7768
 4195TIP3    H239509   6.468   8.521   2.110  1.6397  0.4556  2.1677
 4196TIP3   OH239510   2.053   5.617   1.369  0.5673  0.1892  0.6695
 4196TIP3    H139511   2.052   5.566   1.450  0.5652  1.0080  1.1986
 4196TIP3    H239512   2.140   5.657   1.366 -0.0156  1.5979  1.2176
 4197TIP3   OH239513   6.264   4.889   6.972 -0.0696 -0.4451 -0.3361
 4197TIP3    H139514   6.229   4.967   6.930  0.2775  0.3041  0.7248
 4197TIP3    H239515   6.262   4.909   7.065 -1.2301 -2.2239  0.0814
 4198TIP3   OH239516   6.110   6.394   5.339 -0.4457  0.1782 -0.1092
 4198TIP3    H139517   6.047   6.451   5.383 -0.0489 -0.1982  0.9715
 4198TIP3    H239518   6.144   6.447   5.267  0.0277  1.3840  0.9637
 4199TIP3   OH239519   1.944   8.258   6.472 -0.3536 -0.1337 -0.7242
 4199TIP3    H139520   1.892   8.255   6.553  0.3460  0.7927 -0.2207
 4199TIP3    H239521   2.013   8.193   6.485 -0.5090 -0.3095 -0.7729
 4200TIP3   OH239522   7.440   7.336   6.957  0.2218 -0.1663 -0.1969
 4200TIP3    H139523   7.388   7.269   7.002  0.0286  0.1095  0.0001
 4200TIP3    H239524   7.379   7.373   6.893  0.1333  0.2405  0.1166
 4201TIP3   OH239525   7.013   7.333   5.782  0.3527  0.3858 -0.4659
 4201TIP3    H139526   7.049   7.388   5.851 -1.1585  0.3569  0.3952
 4201TIP3    H239527   6.986   7.253   5.827  0.9989 -0.3962 -1.4184
 4202TIP3   OH239528   1.933   2.379   1.356  0.2482 -0.1523 -0.1489
 4202TIP3    H139529   1.944   2.363   1.263  0.2742 -0.2311 -0.1325
 4202TIP3    H239530   1.922   2.474   1.364 -0.1219 -0.1828 -0.2698
 4203TIP3   OH239531   3.063   6.958   1.579 -0.4944  0.5801 -0.3784
 4203TIP3    H139532   2.996   6.926   1.519 -1.1951  0.7382  0.3088
 4203TIP3    H239533   3.045   7.052   1.587  0.7854  0.9638 -1.4121
 4204TIP3   OH239534   5.479   5.899   1.447  0.1038 -0.6336 -0.1369
 4204TIP3    H139535   5.533   5.874   1.522  1.3165  1.7785 -0.1200
 4204TIP3    H239536   5.426   5.821   1.429  1.2676 -1.9904  1.8859
 4205TIP3   OH239537   6.938   5.926   6.837 -0.0679 -0.4125 -0.5727
 4205TIP3    H139538   6.947   5.877   6.919  0.1811  0.3021 -0.1612
 4205TIP3    H239539   6.846   5.952   6.835  0.1468  0.4713  0.0289
 4206TIP3   OH239540   7.964   4.704   1.051 -0.3686 -0.3879 -0.2114
 4206TIP3    H139541   7.926   4.693   0.964  1.4058 -2.1115 -0.8119
 4206TIP3    H239542   7.894   4.748   1.101 -2.1668 -1.1288 -1.9274
 4207TIP3   OH239543   8.475   1.173   1.473 -0.8164  0.9424 -0.4228
 4207TIP3    H139544   8.431   1.185   1.558 -0.3312 -0.6580  0.1056
 4207TIP3    H239545   0.033   1.165   1.495 -0.6143  1.1232 -1.1831
 4208TIP3   OH239546   7.655   2.956   1.850  0.4768 -0.5471 -0.6723
 4208TIP3    H139547   7.748   2.977   1.839  0.8640 -1.5685  0.4137
 4208TIP3    H239548   7.639   2.965   1.944 -0.8386  0.7588 -0.9835
 4209TIP3   OH239549   2.666   1.595   0.345 -0.0232 -0.5676  0.0193
 4209TIP3    H139550   2.677   1.517   0.399 -1.6543  1.1022  2.9919
 4209TIP3    H239551   2.744   1.648   0.364  0.7894 -1.1044 -1.5492
 4210TIP3   OH239552   0.082   4.517   7.046 -0.2150  0.1735 -0.1021
 4210TIP3    H139553   0.091   4.425   7.021  0.5263 -0.0117  0.7957
 4210TIP3    H239554   0.059   4.561   6.964  2.5258 -0.3427 -1.2772
 4211TIP3   OH239555   0.328   8.023   4.944 -0.1627 -0.7694 -0.0156
 4211TIP3    H139556   0.401   7.966   4.969 -0.4975 -1.5706 -0.7957
 4211TIP3    H239557   0.280   8.037   5.026  1.7559  1.1686  0.8716
 4212TIP3   OH239558   0.024   6.075   4.750  0.0611 -0.1651 -0.4303
 4212TIP3    H139559   0.055   6.029   4.671 -0.3732 -1.1651 -0.0435
 4212TIP3    H239560   8.484   6.022   4.779 -0.6639  0.9924 -0.1465
 4213TIP3   OH239561   2.194   0.708   0.728  0.6028  0.2588  0.0047
 4213TIP3    H139562   2.134   0.756   0.786  0.5906 -1.1731  1.2431
 4213TIP3    H239563   2.213   0.769   0.657 -1.8323  0.9814 -0.1118
 4214TIP3   OH239564   0.733   5.089   6.396  0.2397 -0.4766 -0.0443
 4214TIP3    H139565   0.781   5.122   6.320 -0.1240 -1.3413 -0.6707
 4214TIP3    H239566   0.741   5.158   6.461  0.0378  0.5505 -1.0734
 4215TIP3   OH239567   6.005   1.150   5.674  0.0547  0.3571 -0.5541
 4215TIP3    H139568   5.982   1.065   5.712  0.8805 -0.0284 -0.8730
 4215TIP3    H239569   5.934   1.209   5.700  0.3761  0.0164  1.2336
 4216TIP3   OH239570   3.485   4.022   5.417  0.2010  0.3506 -0.4439
 4216TIP3    H139571   3.537   4.082   5.470 -1.3208  1.1925  0.1749
 4216TIP3    H239572   3.438   4.079   5.355 -1.2518 -0.1706  0.1367
 4217TIP3   OH239573   5.513   7.903   6.922 -0.2089 -0.4245  0.6015
 4217TIP3    H139574   5.517   7.853   7.004  1.5770 -1.4546 -0.0582
 4217TIP3    H239575   5.561   7.984   6.941 -2.8884  1.0372  1.5948
 4218TIP3   OH239576   0.232   6.199   0.684 -0.0798  0.3058 -0.6886
 4218TIP3    H139577   0.152   6.251   0.683  0.0439  0.5525  0.6847
 4218TIP3    H239578   0.214   6.128   0.745  1.5146  1.6726  1.5071
 4219TIP3   OH239579   7.541   2.823   6.929  1.2076  0.5193 -0.0683
 4219TIP3    H139580   7.478   2.831   7.000  1.0284 -0.0776 -0.1490
 4219TIP3    H239581   7.575   2.911   6.916  0.3312  0.8697 -0.0700
 4220TIP3   OH239582   8.145   7.351   6.507  0.7759 -0.0002  0.1032
 4220TIP3    H139583   8.111   7.324   6.592  1.2658  0.1981  0.3649
 4220TIP3    H239584   8.235   7.316   6.505  0.6949 -0.1964 -0.4222
 4221TIP3   OH239585   7.259   5.989   5.914  0.0558  0.3838  0.3060
 4221TIP3    H139586   7.346   5.951   5.927  0.0516 -0.2731 -1.4323
 4221TIP3    H239587   7.249   5.995   5.819 -0.7393  2.9580  0.5026
 4222TIP3   OH239588   5.995   3.252   0.769  0.3570  0.2293  0.1561
 4222TIP3    H139589   5.977   3.161   0.795 -1.4927  0.5195  0.0342
 4222TIP3    H239590   6.026   3.294   0.849 -0.8761 -0.0044  0.7812
 4223TIP3   OH239591   2.172   3.316   0.385 -0.0267 -0.6432 -0.1937
 4223TIP3    H139592   2.129   3.295   0.302  1.2040 -1.3650 -0.6963
 4223TIP3    H239593   2.223   3.395   0.367 -1.9079  0.8574  0.7057
 4224TIP3   OH239594   1.500   4.156   6.971  0.5666 -0.0262  0.1680
 4224TIP3    H139595   1.504   4.095   6.897  2.2475 -1.0217  1.0067
 4224TIP3    H239596   1.458   4.234   6.936  1.8238 -0.2359 -2.0212
 4225TIP3   OH239597   1.764   1.520   1.904 -0.4458  0.0852  0.1634
 4225TIP3    H139598   1.720   1.513   1.989 -0.0020  0.9689  0.4767
 4225TIP3    H239599   1.701   1.568   1.849 -0.1765  0.7344  0.4080
 4226TIP3   OH239600   8.341   5.606   4.827 -0.2410 -0.0782  0.3226
 4226TIP3    H139601   8.310   5.542   4.762 -2.9555 -0.3175  1.7012
 4226TIP3    H239602   8.431   5.624   4.802 -0.5122 -1.7532 -2.2325
 4227TIP3   OH239603   5.123   3.448   2.098  0.4737 -0.1239 -0.0790
 4227TIP3    H139604   5.112   3.511   2.027 -0.1848 -0.7511 -0.5468
 4227TIP3    H239605   5.179   3.493   2.162 -1.9554  1.9084  0.7831
 4228TIP3   OH239606   1.652   2.840   1.277  0.0042  0.0516  0.0047
 4228TIP3    H139607   1.679   2.929   1.254  0.9303  0.2908  1.8291
 4228TIP3    H239608   1.636   2.843   1.371  0.0656 -1.7192  0.1083
 4229TIP3   OH239609   3.027   5.428   6.295  0.2969 -0.4627 -0.3616
 4229TIP3    H139610   3.041   5.515   6.332 -3.0761  0.7175 -1.4739
 4229TIP3    H239611   3.073   5.431   6.211 -0.5869  0.6757 -0.8410
 4230TIP3   OH239612   1.152   5.885   1.330 -0.1845  0.1368 -0.2645
 4230TIP3    H139613   1.219   5.952   1.316  0.8788 -0.8229  0.0469
 4230TIP3    H239614   1.201   5.808   1.361 -1.4513 -0.5485  0.1218
 4231TIP3   OH239615   2.274   4.761   6.234 -0.3120 -0.0770  0.2592
 4231TIP3    H139616   2.263   4.847   6.275 -1.4049 -0.3584  0.5866
 4231TIP3    H239617   2.253   4.698   6.304 -2.2865 -0.5667 -0.6969
 4232TIP3   OH239618   3.359   7.589   6.103  0.2550 -0.0966  0.4670
 4232TIP3    H139619   3.284   7.648   6.089  0.7022  0.4666  0.3944
 4232TIP3    H239620   3.323   7.501   6.091  0.0925  0.2382 -1.8947
 4233TIP3   OH239621   1.729   2.825   6.698  0.1678  0.0057 -0.3738
 4233TIP3    H139622   1.821   2.814   6.676  0.8090  0.4666  1.8678
 4233TIP3    H239623   1.719   2.918   6.715 -0.3394 -0.2484  0.8332
 4234TIP3   OH239624   7.114   1.135   1.257 -0.6125 -0.3633 -0.5751
 4234TIP3    H139625   7.109   1.220   1.300  0.4088 -0.8220  0.4962
 4234TIP3    H239626   7.172   1.150   1.182 -1.1026  0.0671 -0.8735
 4235TIP3   OH239627   2.709   5.804   5.146 -0.6757 -0.2238 -0.2356
 4235TIP3    H139628   2.770   5.869   5.182 -0.9448  0.3233 -0.7541
 4235TIP3    H239629   2.756   5.765   5.072 -0.5006 -0.6574  0.0960
 4236TIP3   OH239630   6.897   6.631   6.721  0.6434 -0.0835  0.0537
 4236TIP3    H139631   6.897   6.549   6.770 -0.8094 -0.0902  0.0795
 4236TIP3    H239632   6.896   6.605   6.629  3.6218 -0.0726 -0.0808
 4237TIP3   OH239633   8.464   3.474   6.006  0.0805  0.4094 -0.0974
 4237TIP3    H139634   8.496   3.488   6.095 -0.2810 -0.8412  0.2535
 4237TIP3    H239635   8.395   3.409   6.015  0.0898  0.1980 -1.3064
 4238TIP3   OH239636   2.177   1.445   6.891 -0.6144  0.1280  0.1063
 4238TIP3    H139637   2.127   1.404   6.962 -1.1331 -0.3767 -0.5343
 4238TIP3    H239638   2.217   1.371   6.845  0.8273  0.5322  0.6695
 4239TIP3   OH239639   3.939   6.936   6.974 -0.5355 -0.1021 -0.1438
 4239TIP3    H139640   3.918   6.930   7.067 -1.8021  1.7426 -0.2496
 4239TIP3    H239641   3.858   6.969   6.933  0.5571  0.9073 -1.6090
 4240TIP3   OH239642   5.327   1.178   0.821  0.9627 -0.0892  0.4770
 4240TIP3    H139643   5.391   1.211   0.885  1.2615  1.5367 -0.5824
 4240TIP3    H239644   5.335   1.239   0.748  1.2457 -2.3611 -1.4882
 4241TIP3   OH239645   0.040   7.808   6.825 -0.0585  0.2416  0.4823
 4241TIP3    H139646   8.525   7.838   6.901  2.5249  0.9865  2.0080
 4241TIP3    H239647   0.051   7.886   6.770 -1.3121 -0.1373 -0.3533
 4242TIP3   OH239648   5.956   5.267   0.790  0.3992  0.2015 -0.5184
 4242TIP3    H139649   6.042   5.268   0.832  0.7203 -1.2258 -1.0610
 4242TIP3    H239650   5.896   5.239   0.858  0.5329  0.2117 -0.3951
 4243TIP3   OH239651   7.325   5.403   1.207 -0.2082  0.3567 -0.8379
 4243TIP3    H139652   7.331   5.332   1.271  1.0445  1.1131 -0.0718
 4243TIP3    H239653   7.239   5.391   1.166 -1.0706 -0.1153  1.0144
 4244TIP3   OH239654   6.207   7.828   0.881 -0.2616 -0.1306 -0.0972
 4244TIP3    H139655   6.238   7.737   0.880 -0.4493 -0.2018 -1.3354
 4244TIP3    H239656   6.119   7.823   0.843  0.0646  0.6748 -0.9920
 4245TIP3   OH239657   5.765   8.510   5.262 -0.1389 -0.4141  0.2729
 4245TIP3    H139658   5.806   0.062   5.270 -1.4857  0.0971  2.4282
 4245TIP3    H239659   5.754   8.498   5.168  0.8447  1.3817 -0.1332
 4246TIP3   OH239660   3.382   2.049   1.324  0.8209 -1.1667  0.0017
 4246TIP3    H139661   3.309   2.111   1.319  0.9959 -0.6302  2.5922
 4246TIP3    H239662   3.438   2.073   1.250 -1.5207 -1.5773 -2.0329
 4247TIP3   OH239663   0.788   2.751   1.834 -0.2675  0.2418 -0.2596
 4247TIP3    H139664   0.810   2.842   1.853 -0.7341  0.3259 -0.1224
 4247TIP3    H239665   0.857   2.722   1.773  2.6085 -0.7127  3.1333
 4248TIP3   OH239666   0.005   5.517   5.641 -0.2977 -0.2075  0.1404
 4248TIP3    H139667   8.454   5.499   5.601 -0.8610  1.0193  0.7560
 4248TIP3    H239668   0.041   5.430   5.660 -0.6652 -0.7855 -1.6449
 4249TIP3   OH239669   1.196   7.956   1.593 -0.4222 -0.3986 -0.6333
 4249TIP3    H139670   1.279   7.911   1.608  0.6563  1.0576 -1.9797
 4249TIP3    H239671   1.139   7.889   1.556  0.3691 -1.2381 -0.3672
 4250TIP3   OH239672   0.872   4.920   6.784  0.1445  0.4706  0.3138
 4250TIP3    H139673   0.868   5.003   6.832  0.9828  1.1037 -0.6650
 4250TIP3    H239674   0.802   4.926   6.720 -1.6541 -0.8124  2.0568
 4251TIP3   OH239675   1.102   2.628   6.615  0.4666  0.2857  0.0606
 4251TIP3    H139676   1.083   2.536   6.630  0.9282  0.3611  1.2513
 4251TIP3    H239677   1.073   2.672   6.696  4.3432  0.5601  1.5125
 4252TIP3   OH239678   3.248   7.693   6.757 -0.1315 -0.0188 -0.7071
 4252TIP3    H139679   3.190   7.617   6.755 -0.4614  0.2414 -1.7892
 4252TIP3    H239680   3.335   7.657   6.742 -0.2582 -0.2152 -0.9856
 4253TIP3   OH239681   5.211   5.852   2.003 -0.1637 -0.0543 -0.2706
 4253TIP3    H139682   5.261   5.777   2.034  0.6376  0.0374 -1.2873
 4253TIP3    H239683   5.243   5.868   1.914 -0.8769  1.0037 -0.3632
 4254TIP3   OH239684   3.504   3.342   5.969  0.1970  0.1605 -0.3920
 4254TIP3    H139685   3.512   3.372   6.060  1.5383  0.3187 -0.5549
 4254TIP3    H239686   3.552   3.260   5.967 -0.8177 -0.4374 -0.7003
 4255TIP3   OH239687   6.377   2.696   1.651 -0.0457  0.7314 -0.3730
 4255TIP3    H139688   6.403   2.788   1.648 -1.0702  1.0697  0.4155
 4255TIP3    H239689   6.455   2.648   1.622  0.9374  1.7724  0.4217
 4256TIP3   OH239690   4.625   6.097   1.406 -0.2932  0.5366 -0.3106
 4256TIP3    H139691   4.639   6.182   1.450  0.3997  0.7789 -0.9751
 4256TIP3    H239692   4.602   6.120   1.316  1.9860  0.0337 -1.0923
 4257TIP3   OH239693   4.726   7.639   1.513 -0.0331 -0.8191 -0.5301
 4257TIP3    H139694   4.807   7.672   1.553 -1.7035 -0.1657  2.6530
 4257TIP3    H239695   4.670   7.716   1.503 -0.6110 -1.3826 -1.9164
 4258TIP3   OH239696   6.607   0.854   0.222  0.3850 -0.0907 -0.0513
 4258TIP3    H139697   6.565   0.842   0.307  0.7858 -0.2039  0.1343
 4258TIP3    H239698   6.611   0.948   0.210  2.6381  0.0459  1.2432
 4259TIP3   OH239699   7.518   0.230   0.961 -0.5729  0.3935  0.4411
 4259TIP3    H139700   7.430   0.234   0.999 -0.5767  0.8119  0.3989
 4259TIP3    H239701   7.575   0.206   1.034 -0.4713  1.9606  0.9236
 4260TIP3   OH239702   1.125   5.422   0.642 -0.5207  0.7192  0.1435
 4260TIP3    H139703   1.190   5.441   0.574  0.0553  1.2210  0.8195
 4260TIP3    H239704   1.042   5.415   0.595  0.5011 -5.1080 -1.6573
 4261TIP3   OH239705   5.651   3.790   7.018  0.5117 -0.6596 -0.8514
 4261TIP3    H139706   5.559   3.805   7.041  1.0050  1.7066 -0.1603
 4261TIP3    H239707   5.668   3.700   7.045 -1.3820 -0.8559 -0.1878
 4262TIP3   OH239708   1.771   6.545   0.222 -0.1409  0.2746 -0.1308
 4262TIP3    H139709   1.821   6.570   0.299 -0.9589 -0.7948  0.7907
 4262TIP3    H239710   1.834   6.496   0.168  0.3546  0.7597 -0.0024
 4263TIP3   OH239711   6.486   4.440   0.691 -0.1505 -0.0490  0.0193
 4263TIP3    H139712   6.474   4.421   0.784 -1.1696 -0.0037 -0.0845
 4263TIP3    H239713   6.546   4.372   0.660  0.2601 -0.0162  0.7188
 4264TIP3   OH239714   7.212   8.106   6.906 -0.5804 -0.6596 -0.1571
 4264TIP3    H139715   7.187   8.035   6.967  0.4589 -0.4996  0.4773
 4264TIP3    H239716   7.296   8.137   6.939 -1.3758  1.4023  0.0261
 4265TIP3   OH239717   5.015   0.338   1.373 -0.0157 -0.2193  0.0173
 4265TIP3    H139718   4.972   0.269   1.425  0.1143 -0.6922 -0.4941
 4265TIP3    H239719   5.094   0.360   1.423 -1.1485  1.1357  1.3202
 4266TIP3   OH239720   1.878   1.251   0.386  0.1348  0.1704 -0.2150
 4266TIP3    H139721   1.886   1.237   0.481 -3.5763  0.9821  0.3871
 4266TIP3    H239722   1.818   1.183   0.357  0.2438  0.7042 -1.7719
 4267TIP3   OH239723   5.348   5.341   1.175  0.0926  0.0760  0.6145
 4267TIP3    H139724   5.307   5.313   1.093  0.7019  0.5776  0.1323
 4267TIP3    H239725   5.388   5.262   1.210 -0.0735 -0.1165  0.3755
 4268TIP3   OH239726   2.746   7.570   6.181 -0.3551  0.6218 -0.5254
 4268TIP3    H139727   2.745   7.630   6.106  1.2537  0.6201 -0.5777
 4268TIP3    H239728   2.764   7.626   6.256  0.1175  0.3570 -0.4350
 4269TIP3   OH239729   4.841   0.050   0.534  0.3265  0.3229 -0.0956
 4269TIP3    H139730   4.823   0.087   0.447  0.4304  2.4321  0.7265
 4269TIP3    H239731   4.789   0.103   0.594  0.9854 -0.4911  1.2385
 4270TIP3   OH239732   8.179   0.643   0.815 -0.2879  0.3995  0.0605
 4270TIP3    H139733   8.227   0.607   0.889  0.1740 -0.1914 -0.5070
 4270TIP3    H239734   8.172   0.736   0.833  1.6084  0.6074 -0.1246
 4271TIP3   OH239735   3.662   4.919   6.891 -0.2216 -0.2023 -0.3202
 4271TIP3    H139736   3.668   4.937   6.797 -1.9209  2.0926 -0.0954
 4271TIP3    H239737   3.629   4.830   6.896  0.7744 -0.7034 -1.8588
 4272TIP3   OH239738   3.902   3.818   5.313  0.7124 -0.4472 -0.3642
 4272TIP3    H139739   3.951   3.893   5.281 -0.4916  0.9761  0.9476
 4272TIP3    H239740   3.962   3.774   5.373  1.1396 -0.0393 -0.4906
 4273TIP3   OH239741   5.142   4.620   1.457 -0.4532 -0.0496 -0.1354
 4273TIP3    H139742   5.142   4.649   1.548 -1.0897  0.4186 -0.2685
 4273TIP3    H239743   5.233   4.627   1.429 -0.0771 -1.1782  0.7529
 4274TIP3   OH239744   0.542   4.840   5.166 -0.6184 -0.0932 -0.0757
 4274TIP3    H139745   0.526   4.756   5.210 -2.6427  0.7519  0.9273
 4274TIP3    H239746   0.622   4.873   5.207 -0.6916 -0.8140  0.6857
 4275TIP3   OH239747   8.469   3.639   1.687 -0.0613  0.1720  0.3377
 4275TIP3    H139748   8.470   3.644   1.782 -0.8381  1.1433  0.2982
 4275TIP3    H239749   8.499   3.725   1.658 -1.6702  0.5535 -0.2889
 4276TIP3   OH239750   3.853   0.141   0.587  0.1955 -0.3228 -0.5624
 4276TIP3    H139751   3.945   0.162   0.570  0.5292 -0.9070  0.4593
 4276TIP3    H239752   3.804   0.195   0.525  1.1841  0.6734 -0.4938
 4277TIP3   OH239753   7.797   0.627   1.817 -0.2743  0.1312 -0.0914
 4277TIP3    H139754   7.891   0.613   1.803  0.1011  2.2184 -0.0308
 4277TIP3    H239755   7.766   0.545   1.856  1.2800 -0.9982 -1.1141
 4278TIP3   OH239756   1.566   0.419   0.380  0.4938 -0.5607  0.5337
 4278TIP3    H139757   1.514   0.411   0.300  0.1199  0.3269  0.6723
 4278TIP3    H239758   1.539   0.503   0.417 -0.0880 -1.4251  2.1490
 4279TIP3   OH239759   1.954   8.227   5.716 -0.3725 -0.2308  0.2337
 4279TIP3    H139760   1.967   8.263   5.804 -3.3934  0.1552  0.6331
 4279TIP3    H239761   2.015   8.153   5.711  1.0534  0.7312  1.9834
 4280TIP3   OH239762   1.876   7.011   0.103 -0.3245 -0.4702  0.5260
 4280TIP3    H139763   1.808   6.999   0.037  0.8971 -0.6608 -0.7543
 4280TIP3    H239764   1.947   6.952   0.076 -0.4327 -1.8728  2.9781
 4281TIP3   OH239765   0.871   7.949   1.580 -0.2013 -0.0582 -0.5014
 4281TIP3    H139766   0.793   7.933   1.527  0.2813 -0.5009 -1.0866
 4281TIP3    H239767   0.924   7.870   1.570 -1.0991 -1.1817  2.4903
 4282TIP3   OH239768   8.428   1.783   6.815  0.1604  0.1480  0.0094
 4282TIP3    H139769   8.352   1.758   6.761  0.8663  1.7732 -1.8572
 4282TIP3    H239770   8.395   1.780   6.905 -1.4993 -1.2038 -0.5784
 4283TIP3   OH239771   8.237   6.419   1.717  0.5086  0.8722 -0.7473
 4283TIP3    H139772   8.247   6.482   1.789  0.3117  0.9345 -0.7763
 4283TIP3    H239773   8.172   6.357   1.749  0.8254  0.5841 -0.6497
 4284TIP3   OH239774   6.857   0.753   0.477  0.2080  0.5377 -0.0366
 4284TIP3    H139775   6.793   0.778   0.544  0.9071  1.0407  0.4648
 4284TIP3    H239776   6.859   0.658   0.479 -0.4036  0.5259  0.0549
 4285TIP3   OH239777   1.101   6.574   6.986  0.3987 -0.2757  0.1956
 4285TIP3    H139778   1.107   6.639   6.917 -2.1103 -0.2514 -0.0736
 4285TIP3    H239779   1.119   6.491   6.942  0.8920 -0.0590 -0.0216
 4286TIP3   OH239780   6.034   7.517   0.782 -0.3657 -0.5063 -0.3043
 4286TIP3    H139781   6.035   7.545   0.873 -2.6127 -0.1045 -0.3470
 4286TIP3    H239782   6.122   7.483   0.766  0.1370 -0.3855  1.9320
 4287TIP3   OH239783   7.240   6.077   6.265  0.4540 -0.5979  1.1223
 4287TIP3    H139784   7.193   6.026   6.331  1.0001 -0.9049  1.2716
 4287TIP3    H239785   7.196   6.162   6.265  1.3085 -0.1121  2.8669
 4288TIP3   OH239786   1.048   2.494   5.028  0.4735 -0.3944  0.1172
 4288TIP3    H139787   1.089   2.448   5.101 -0.2336 -0.5129  0.4403
 4288TIP3    H239788   0.954   2.485   5.042  0.3005  1.3467  0.3362
 4289TIP3   OH239789   2.116   0.447   0.822  0.9453 -0.0944  0.1346
 4289TIP3    H139790   2.085   0.465   0.911 -1.0120  0.5034 -0.6112
 4289TIP3    H239791   2.129   0.534   0.784  1.3811 -0.3406 -0.2810
 4290TIP3   OH239792   4.601   7.991   5.072 -0.3206  0.2171  0.0014
 4290TIP3    H139793   4.598   8.013   4.979 -1.4677  0.6078  0.1162
 4290TIP3    H239794   4.608   8.076   5.116  2.4970 -0.0492  0.2321
 4291TIP3   OH239795   1.876   2.563   0.670  0.3180 -0.2703  0.0172
 4291TIP3    H139796   1.828   2.622   0.728  0.2809 -1.2577  1.0329
 4291TIP3    H239797   1.966   2.594   0.674  0.0704  0.5732 -0.5913
 4292TIP3   OH239798   3.352   4.082   6.904  0.5952 -0.4330  0.3588
 4292TIP3    H139799   3.361   4.178   6.904  2.7642 -0.5801  0.5028
 4292TIP3    H239800   3.328   4.060   6.814  2.9441  0.1008 -0.4749
 4293TIP3   OH239801   3.002   4.253   6.408 -0.5071  0.0312  0.1329
 4293TIP3    H139802   2.925   4.306   6.387 -0.4166 -0.2408 -0.9533
 4293TIP3    H239803   3.071   4.289   6.353  0.1675  0.3150  1.1503
 4294TIP3   OH239804   4.229   4.844   0.678  0.2005 -0.2827  0.2917
 4294TIP3    H139805   4.157   4.895   0.714 -0.8622 -1.2121 -0.4529
 4294TIP3    H239806   4.266   4.797   0.754  1.4221  1.7792  1.0484
 4295TIP3   OH239807   7.411   7.035   1.236  0.2912 -0.8101 -0.8295
 4295TIP3    H139808   7.319   7.055   1.217  0.1464  0.4145  0.9594
 4295TIP3    H239809   7.453   7.120   1.249  0.9865 -1.3986  1.2689
 4296TIP3   OH239810   1.281   5.994   6.488  0.3249  0.0095  0.4858
 4296TIP3    H139811   1.373   6.001   6.512  0.4702  2.5948 -0.4943
 4296TIP3    H239812   1.234   6.036   6.560  0.1020  0.5189  0.0508
 4297TIP3   OH239813   2.759   3.969   4.855  0.2859 -0.2148  0.2495
 4297TIP3    H139814   2.686   4.016   4.898  1.2839  0.6407  1.0846
 4297TIP3    H239815   2.770   3.890   4.908  0.4958  0.0669  0.6346
 4298TIP3   OH239816   1.529   7.833   0.292  0.0172 -0.0223  0.0419
 4298TIP3    H139817   1.609   7.862   0.248 -0.2876  0.8906  0.0651
 4298TIP3    H239818   1.459   7.851   0.228 -0.2069 -0.4937  0.1537
 4299TIP3   OH239819   8.173   1.719   5.491 -0.0049 -0.3194  0.1804
 4299TIP3    H139820   8.265   1.707   5.516 -0.5299 -1.5493  1.7107
 4299TIP3    H239821   8.156   1.646   5.431  0.2739  0.5183 -0.9435
 4300TIP3   OH239822   4.607   1.101   0.109 -0.3795  0.8799 -0.2210
 4300TIP3    H139823   4.694   1.089   0.070 -0.7113 -2.6433 -0.1592
 4300TIP3    H239824   4.618   1.177   0.166  2.0349  1.8676 -1.8242
 4301TIP3   OH239825   6.404   6.430   1.115 -0.6216  0.3167 -0.8129
 4301TIP3    H139826   6.338   6.451   1.181  0.0619 -1.2823  0.4403
 4301TIP3    H239827   6.431   6.341   1.136  1.5591  0.7369 -1.6216
 4302TIP3   OH239828   3.362   6.249   0.273 -0.2199 -0.5456 -0.8987
 4302TIP3    H139829   3.394   6.301   0.346 -1.0601  0.3845 -1.1706
 4302TIP3    H239830   3.286   6.203   0.308 -1.2034  0.6379 -1.4185
 4303TIP3   OH239831   3.950   0.542   0.521  0.5861  0.1421 -0.3613
 4303TIP3    H139832   3.880   0.582   0.470 -0.7672  1.1183  2.1393
 4303TIP3    H239833   4.029   0.589   0.494 -0.2510  1.3569 -0.7720
 4304TIP3   OH239834   1.156   4.310   5.717 -0.7317  0.1812 -0.2528
 4304TIP3    H139835   1.163   4.241   5.784 -1.8277  0.3707  0.0654
 4304TIP3    H239836   1.208   4.277   5.644  0.7849  0.1251  0.7995
 4305TIP3   OH239837   4.832   0.006   0.873 -0.4646 -0.1442 -0.6344
 4305TIP3    H139838   4.787   0.045   0.799 -1.3652  2.4605  1.1184
 4305TIP3    H239839   4.923   0.036   0.865 -0.5345  0.0326 -0.7517
 4306TIP3   OH239840   0.978   0.552   0.163  0.1500  0.1857 -0.4371
 4306TIP3    H139841   1.036   0.496   0.215 -1.2782  0.8038  1.9801
 4306TIP3    H239842   0.918   0.492   0.120  1.3109 -0.3347 -1.3939
 4307TIP3   OH239843   1.274   7.646   1.050 -0.1249 -0.1999  0.3982
 4307TIP3    H139844   1.206   7.597   1.003 -0.3731  0.1280  0.4079
 4307TIP3    H239845   1.226   7.691   1.120  0.0809  0.1460  0.3183
 4308TIP3   OH239846   7.762   3.100   0.039  0.1648 -0.6336  0.6857
 4308TIP3    H139847   7.728   3.103   7.020  0.5422  2.0536  0.5762
 4308TIP3    H239848   7.685   3.083   0.093 -0.6239  0.8578  0.0750
 4309TIP3   OH239849   6.704   4.413   5.183  0.1663 -0.4892  0.0505
 4309TIP3    H139850   6.761   4.383   5.112  0.3408  0.3707 -0.1893
 4309TIP3    H239851   6.657   4.488   5.145  0.9310  0.5648  1.0968
 4310TIP3   OH239852   5.772   6.239   0.131  0.7547 -0.1043 -0.4259
 4310TIP3    H139853   5.688   6.263   0.092  1.8457  1.6109 -1.8876
 4310TIP3    H239854   5.774   6.288   0.213  1.1635  1.5990 -1.3913
 4311TIP3   OH239855   0.273   5.779   0.360 -0.1885  0.3238  0.3414
 4311TIP3    H139856   0.302   5.864   0.326 -0.9088  0.4065 -0.0887
 4311TIP3    H239857   0.352   5.724   0.357  0.4195  1.1152  1.1219
 4312TIP3   OH239858   4.332   7.514   6.397 -0.0922 -0.1009  0.2277
 4312TIP3    H139859   4.368   7.435   6.358 -0.9144 -0.0844 -0.6050
 4312TIP3    H239860   4.374   7.586   6.351  1.6943  0.0337  1.9083
 4313TIP3   OH239861   3.870   7.008   0.177  0.0716  0.6092 -0.1831
 4313TIP3    H139862   3.942   7.002   0.239 -0.9084 -0.9916  0.8946
 4313TIP3    H239863   3.815   7.079   0.210 -1.9691 -2.0225  2.6544
 4314TIP3   OH239864   6.313   7.384   0.636  0.4357  0.7086  0.0888
 4314TIP3    H139865   6.283   7.457   0.581  1.7454  0.5813 -0.8233
 4314TIP3    H239866   6.370   7.425   0.701  1.1784  0.4931 -0.4287
 4315TIP3   OH239867   6.723   6.764   0.241  0.0681  0.3196 -0.0632
 4315TIP3    H139868   6.710   6.738   0.332 -1.0493  2.6186  0.5211
 4315TIP3    H239869   6.660   6.712   0.191  0.0955 -0.3400  0.5805
 4316TIP3   OH239870   3.106   5.402   0.451 -0.4397  0.4999 -0.0102
 4316TIP3    H139871   3.047   5.476   0.467 -1.1982  0.2119 -1.2686
 4316TIP3    H239872   3.108   5.354   0.533 -1.8138  0.6467  0.1373
 4317TIP3   OH239873   8.204   4.506   6.099  0.6332  0.4082  0.3707
 4317TIP3    H139874   8.182   4.417   6.070  0.7884  0.3524  0.4238
 4317TIP3    H239875   8.139   4.526   6.166 -0.0034  0.7117 -0.3289
 4318TIP3   OH239876   7.443   0.667   0.926 -0.3063 -0.0620  0.0934
 4318TIP3    H139877   7.392   0.591   0.899 -0.2878  0.0559 -0.2736
 4318TIP3    H239878   7.433   0.670   1.021 -2.9607  1.3370 -0.1545
 4319TIP3   OH239879   2.042   1.661   0.316 -0.5060  0.3042 -0.0369
 4319TIP3    H139880   2.103   1.592   0.340 -0.3156  0.4222 -0.1825
 4319TIP3    H239881   1.964   1.615   0.286 -0.2001  0.1459 -0.6081
 4320TIP3   OH239882   6.319   3.678   0.219  0.2686 -0.1206 -0.1782
 4320TIP3    H139883   6.373   3.746   0.177  1.3820 -0.9771 -0.1830
 4320TIP3    H239884   6.255   3.727   0.270 -0.2376  0.9525 -1.7461
 4321TIP3   OH239885   2.458   7.886   7.045  0.3519  0.3522 -0.7274
 4321TIP3    H139886   2.526   7.928   6.991 -1.6667  2.0031 -2.1387
 4321TIP3    H239887   2.452   7.940   0.052 -0.2877  1.0487 -1.2499
 4322TIP3   OH239888   4.874   5.803   0.268  0.6442  0.3170  0.7847
 4322TIP3    H139889   4.967   5.824   0.283  0.3933  1.4566  0.8414
 4322TIP3    H239890   4.875   5.718   0.225  1.8423  1.3087 -1.3037
 4323TIP3   OH239891   7.590   7.054   5.853  0.2600 -0.0402 -0.3184
 4323TIP3    H139892   7.604   7.065   5.759  0.9507  1.1362 -0.0989
 4323TIP3    H239893   7.498   7.077   5.866  0.2956  0.3003 -0.6395
 4324TIP3   OH239894   1.239   4.940   5.539 -0.2878  0.0476  0.4245
 4324TIP3    H139895   1.332   4.919   5.551 -0.4892 -1.4199 -0.3657
 4324TIP3    H239896   1.198   4.913   5.621  0.0140  1.0657  0.9327
 4325TIP3   OH239897   1.136   8.247   5.838  0.1364 -0.2932 -0.2757
 4325TIP3    H139898   1.196   8.283   5.772 -0.5354  0.3725 -0.5222
 4325TIP3    H239899   1.154   8.297   5.917 -0.4638  0.2709 -0.4921
 4326TIP3   OH239900   1.330   0.075   5.842  0.4379  0.1721 -0.6454
 4326TIP3    H139901   1.307   0.095   5.752  0.9653  1.1215 -0.5838
 4326TIP3    H239902   1.356   0.159   5.880 -0.6629 -0.0364  0.6612
 4327TIP3   OH239903   0.201   2.112   0.204 -0.1836  0.3350  0.4248
 4327TIP3    H139904   0.121   2.157   0.179 -1.4940 -1.1664  1.6899
 4327TIP3    H239905   0.181   2.019   0.195  1.4864 -0.0844  0.5927
 4328TIP3   OH239906   3.894   1.675   6.100  0.0475 -0.0237  0.0640
 4328TIP3    H139907   3.866   1.614   6.169  1.6709  0.6903  1.4377
 4328TIP3    H239908   3.835   1.749   6.107 -0.2028 -0.2368  0.2372
 4329TIP3   OH239909   5.627   3.533   0.980 -0.3019  0.3041 -0.2796
 4329TIP3    H139910   5.558   3.589   0.944  1.0873  1.1087 -1.8141
 4329TIP3    H239911   5.642   3.467   0.913  0.6545  0.3600 -0.1271
 4330TIP3   OH239912   7.266   7.448   6.796  0.0419  0.4475 -0.3725
 4330TIP3    H139913   7.181   7.431   6.755 -0.2289 -1.9566  0.9773
 4330TIP3    H239914   7.325   7.468   6.724 -1.3598  0.8204 -1.4542
 4331TIP3   OH239915   2.659   6.960   5.927 -0.1006 -0.5218 -0.4357
 4331TIP3    H139916   2.656   7.054   5.942  0.6048 -0.5663  0.0307
 4331TIP3    H239917   2.625   6.949   5.838 -2.9806 -0.1209  0.5297
 4332TIP3   OH239918   3.414   5.394   0.450  0.5447 -0.0091  0.0242
 4332TIP3    H139919   3.339   5.437   0.409  0.1955 -1.2028 -0.6322
 4332TIP3    H239920   3.380   5.310   0.480  1.6255 -0.6113 -0.3692
 4333TIP3   OH239921   5.977   2.276   5.184 -0.2611 -0.4811  0.1163
 4333TIP3    H139922   5.927   2.354   5.208  0.1077 -0.0758 -0.4086
 4333TIP3    H239923   5.964   2.267   5.090  0.6465 -0.3597 -0.0362
 4334TIP3   OH239924   6.821   5.422   0.699 -0.0303  0.0499 -0.1706
 4334TIP3    H139925   6.728   5.440   0.701  0.3785  2.9472 -1.8951
 4334TIP3    H239926   6.830   5.335   0.738 -3.4730 -0.5495 -0.4577
 4335TIP3   OH239927   8.324   5.261   6.984 -0.5556 -0.6622 -0.0206
 4335TIP3    H139928   8.395   5.324   6.970 -0.5424 -0.9726 -1.6477
 4335TIP3    H239929   8.320   5.248   0.007  1.6329 -0.7213  0.1118
 4336TIP3   OH239930   4.924   1.569   1.199 -0.1095  0.2505 -0.1518
 4336TIP3    H139931   4.910   1.571   1.293  0.8033 -0.9233  0.0215
 4336TIP3    H239932   4.887   1.652   1.168  0.1464  0.9412  1.3058
 4337TIP3   OH239933   6.673   7.496   1.107  0.7208 -0.3382 -0.1534
 4337TIP3    H139934   6.639   7.568   1.055  0.7536  0.5308  1.0038
 4337TIP3    H239935   6.740   7.535   1.162  0.0963 -1.0587  1.1619
 4338TIP3   OH239936   6.442   3.862   6.984 -0.1179  0.0354 -0.2180
 4338TIP3    H139937   6.402   3.933   6.934 -1.7734 -1.6176 -1.3775
 4338TIP3    H239938   6.387   3.786   6.967  0.9246 -1.3075  1.8643
 4339TIP3   OH239939   1.683   6.013   6.087 -0.2289 -0.1853  0.0545
 4339TIP3    H139940   1.641   5.998   6.172  0.3500 -0.2225  0.3416
 4339TIP3    H239941   1.769   5.971   6.095  0.2835  0.7998 -0.1378
 4340TIP3   OH239942   2.323   7.393   0.106 -0.4719 -0.2530  0.1729
 4340TIP3    H139943   2.333   7.485   0.129 -0.6264 -0.4643  1.1086
 4340TIP3    H239944   2.250   7.391   0.045  0.0346  0.3313 -0.4690
 4341TIP3   OH239945   5.466   4.983   6.403 -0.0467 -0.1674 -0.7655
 4341TIP3    H139946   5.480   4.993   6.309  3.8766  1.7238 -0.1969
 4341TIP3    H239947   5.515   4.905   6.427 -0.4749 -0.2697 -0.2048
 4342TIP3   OH239948   7.878   7.847   0.800  0.2928  0.2576  0.4572
 4342TIP3    H139949   7.916   7.926   0.762  1.1208  0.5270  1.7726
 4342TIP3    H239950   7.880   7.863   0.895 -0.6063 -0.8624  0.6849
 4343TIP3   OH239951   3.815   4.487   5.335 -0.3683 -0.0570 -0.3332
 4343TIP3    H139952   3.866   4.412   5.305 -0.4220  0.1485 -0.9384
 4343TIP3    H239953   3.727   4.471   5.303 -0.3921  0.2427 -0.4140
 4344TIP3   OH239954   6.038   8.254   5.857  0.8148 -0.1225 -0.7746
 4344TIP3    H139955   5.995   8.290   5.935  0.4691  0.9995 -1.4497
 4344TIP3    H239956   6.051   8.161   5.877  0.1737  0.0147  0.3680
 4345TIP3   OH239957   4.688   4.920   6.616  0.3308 -0.1058  0.0607
 4345TIP3    H139958   4.609   4.875   6.586  0.0952  1.4877 -1.9952
 4345TIP3    H239959   4.757   4.854   6.611 -0.2473 -0.6388 -1.5791
 4346TIP3   OH239960   5.646   4.683   5.835 -0.0273 -0.2370  0.1930
 4346TIP3    H139961   5.586   4.726   5.897  0.0595  1.3503 -0.7696
 4346TIP3    H239962   5.640   4.735   5.755  1.7629 -0.7298 -0.3107
 4347TIP3   OH239963   2.569   0.886   5.892  0.1587  0.2003 -0.2046
 4347TIP3    H139964   2.479   0.857   5.897  0.9223 -2.4974 -0.7663
 4347TIP3    H239965   2.567   0.962   5.833 -1.3603 -1.7670 -2.8594
 4348TIP3   OH239966   7.280   1.477   7.064  0.2596 -0.0769  0.0053
 4348TIP3    H139967   7.280   1.555   0.048 -0.2968  0.8855 -1.3313
 4348TIP3    H239968   7.222   1.416   0.039 -0.1856  0.6993  0.5006
 4349TIP3   OH239969   7.679   5.454   6.972  0.0244  0.1421  0.9020
 4349TIP3    H139970   7.693   5.525   7.035  0.5747 -2.4917  3.9971
 4349TIP3    H239971   7.764   5.412   6.963 -0.9719 -2.3912  2.2376
 4350TIP3   OH239972   4.265   6.864   0.295  0.0835 -0.4903 -0.2803
 4350TIP3    H139973   4.207   6.925   0.340  0.8592  0.1874 -0.1584
 4350TIP3    H239974   4.213   6.829   0.223 -0.5337 -0.0538 -0.0535
 4351TIP3   OH239975   4.251   2.263   1.112  0.1427  0.0364 -0.0820
 4351TIP3    H139976   4.304   2.212   1.173 -1.8531  1.4765  3.1402
 4351TIP3    H239977   4.313   2.299   1.049  2.3508 -1.5954  1.0464
 4352TIP3   OH239978   8.149   1.920   1.807 -0.2863  0.2769 -0.4760
 4352TIP3    H139979   8.164   1.907   1.900 -0.5004  1.3039 -0.2840
 4352TIP3    H239980   8.236   1.918   1.767 -0.0568  1.2021 -0.0560
 4353TIP3   OH239981   3.071   7.647   1.923  0.7197 -0.2471  0.3975
 4353TIP3    H139982   3.103   7.626   1.836 -1.7318 -1.0283 -0.3931
 4353TIP3    H239983   3.051   7.740   1.920  0.5391 -0.2965  0.0962
 4354TIP3   OH239984   3.478   8.438   6.955  0.0233  0.2017 -0.7746
 4354TIP3    H139985   3.404   8.481   6.999  0.7458 -0.9172  1.6754
 4354TIP3    H239986   3.541   8.509   6.940 -0.3264  0.6546 -0.1508
 4355TIP3   OH239987   0.254   5.405   5.870  0.3280  0.5584 -0.7418
 4355TIP3    H139988   0.272   5.313   5.851  0.4077  0.0714  1.4251
 4355TIP3    H239989   0.196   5.404   5.945 -0.4784  2.2984 -1.2740
 4356TIP3   OH239990   4.480   4.678   1.396 -0.4105  0.0007  0.4349
 4356TIP3    H139991   4.484   4.748   1.461  1.4041 -0.8856  1.3556
 4356TIP3    H239992   4.447   4.602   1.444 -3.4076  0.4134 -0.8047
 4357TIP3   OH239993   7.186   2.320   1.383  0.1774  0.0234  0.0556
 4357TIP3    H139994   7.212   2.305   1.474  0.1852 -1.7756 -0.2139
 4357TIP3    H239995   7.231   2.253   1.333 -0.7359  0.2515 -1.1414
 4358TIP3   OH239996   0.134   4.476   5.101 -0.5226  0.4188 -0.2236
 4358TIP3    H139997   0.041   4.458   5.087 -0.0904 -1.3419 -1.1239
 4358TIP3    H239998   0.154   4.550   5.044 -0.9141 -0.6030 -1.7365
 4359TIP3   OH239999   0.329   3.280   1.896  0.2105  0.2836  0.5499
 4359TIP3    H140000   0.276   3.221   1.950  0.0199  0.9692  1.1163
 4359TIP3    H240001   0.287   3.365   1.904  1.7982  1.0211  1.6048
 4360TIP3   OH240002   0.652   5.217   0.063 -0.4519  0.2151 -0.1753
 4360TIP3    H140003   0.720   5.192   7.071  1.7241  0.2199  1.9903
 4360TIP3    H240004   0.609   5.135   0.086  0.5873 -0.2309  0.2782
 4361TIP3   OH240005   3.585   4.631   6.844  0.1275  0.1079 -0.5413
 4361TIP3    H140006   3.659   4.591   6.889 -1.2315  2.3448  4.3191
 4361TIP3    H240007   3.527   4.558   6.821  1.6803 -1.2829 -0.1642
 4362TIP3   OH240008   3.273   3.486   0.688  0.5027  0.3939  0.8488
 4362TIP3    H140009   3.241   3.547   0.621 -1.3556 -1.0138  0.3709
 4362TIP3    H240010   3.309   3.543   0.757 -0.9578  2.0288  0.3408
 4363TIP3   OH240011   8.336   1.179   0.393  0.1794 -0.0513 -0.2263
 4363TIP3    H140012   8.419   1.217   0.366  0.0158 -0.5803 -1.5290
 4363TIP3    H240013   8.281   1.180   0.315 -0.3752 -1.4597  0.0987
 4364TIP3   OH240014   5.266   3.851   0.934  0.5705 -0.1308 -0.0373
 4364TIP3    H140015   5.264   3.941   0.965  0.7010 -0.7863  2.0673
 4364TIP3    H240016   5.351   3.842   0.891  1.1463  0.4043  0.9473
 4365TIP3   OH240017   0.349   4.576   6.620  0.3329  0.5485  0.3884
 4365TIP3    H140018   0.401   4.585   6.699  0.6300  1.6695  0.0957
 4365TIP3    H240019   0.373   4.653   6.567 -0.6347  0.3821 -0.3233
 4366TIP3   OH240020   6.237   6.385   5.783 -0.3697  0.4652  0.3522
 4366TIP3    H140021   6.185   6.456   5.743 -1.2894 -0.6197 -0.4509
 4366TIP3    H240022   6.237   6.316   5.716 -3.2452 -2.0705  2.6634
 4367TIP3   OH240023   7.883   5.714   0.525  0.0178 -0.4290 -0.1449
 4367TIP3    H140024   7.796   5.741   0.555 -0.5663 -0.8922 -1.3495
 4367TIP3    H240025   7.866   5.645   0.461  1.3013 -0.8871 -0.0176
 4368TIP3   OH240026   0.660   3.645   6.674  0.0343  0.0868  0.4988
 4368TIP3    H140027   0.616   3.608   6.598 -0.0241 -0.2303  0.6847
 4368TIP3    H240028   0.752   3.651   6.648  0.2423 -1.2651  0.8654
 4369TIP3   OH240029   2.334   6.488   7.007  0.5984  0.2660  0.0527
 4369TIP3    H140030   2.383   6.432   7.067  0.0483  0.2545  0.5050
 4369TIP3    H240031   2.248   6.497   7.048  0.3844  0.6916 -0.4757
 4370TIP3   OH240032   4.532   3.189   5.636 -0.4735  0.3424 -0.5482
 4370TIP3    H140033   4.575   3.268   5.602 -1.0410 -0.3681 -3.1888
 4370TIP3    H240034   4.468   3.222   5.699  0.5197  1.8114 -0.2490
 4371TIP3   OH240035   5.326   1.179   0.085 -0.4650  0.1194 -0.4447
 4371TIP3    H140036   5.315   1.255   0.028 -0.9486  0.7995  0.5225
 4371TIP3    H240037   5.264   1.193   0.156  1.4298  0.2905  1.2746
 4372TIP3   OH240038   6.030   2.458   1.040  0.0053 -0.4388 -0.0105
 4372TIP3    H140039   6.101   2.464   0.976  0.2327 -0.1521  0.2678
 4372TIP3    H240040   5.954   2.430   0.989 -0.0738  0.8136 -0.6017
 4373TIP3   OH240041   0.042   6.606   0.677 -0.3333 -0.1679  0.7133
 4373TIP3    H140042   0.131   6.615   0.712  0.9670  0.6984 -2.4816
 4373TIP3    H240043   0.028   6.511   0.672 -0.5413 -0.3276  3.2544
 4374TIP3   OH240044   4.391   7.030   0.798 -0.7665 -0.4862 -0.2538
 4374TIP3    H140045   4.396   7.125   0.782 -0.9012 -0.2758  0.8484
 4374TIP3    H240046   4.454   6.993   0.737  0.3643  0.4615  0.2780
 4375TIP3   OH240047   3.600   0.886   0.516  0.2011  0.7151 -0.2332
 4375TIP3    H140048   3.620   0.930   0.599  1.0633  2.1688 -1.1759
 4375TIP3    H240049   3.650   0.934   0.451  0.9874 -1.5342 -1.3844
 4376TIP3   OH240050   1.576   5.288   1.797  0.5650  0.0032 -0.1566
 4376TIP3    H140051   1.554   5.232   1.722  3.1198 -0.6883 -0.5197
 4376TIP3    H240052   1.570   5.377   1.763  0.6649 -0.2624 -0.8983
 4377TIP3   OH240053   8.145   0.915   1.180  0.6797 -0.0757  0.4178
 4377TIP3    H140054   8.142   0.839   1.238  1.1081  1.1748  2.1660
 4377TIP3    H240055   8.205   0.976   1.223 -1.5104  2.2704  0.4112
 4378TIP3   OH240056   7.771   1.106   5.673 -0.1344 -0.7181  0.2753
 4378TIP3    H140057   7.765   1.171   5.603  0.8796  0.1143  0.9415
 4378TIP3    H240058   7.757   1.022   5.628 -0.2854 -0.1469 -0.7908
 4379TIP3   OH240059   7.591   6.623   6.393 -0.0857  0.5083  0.3791
 4379TIP3    H140060   7.669   6.678   6.384  1.0058 -0.5367  2.5370
 4379TIP3    H240061   7.593   6.566   6.317  1.3015  0.4862  0.3989
 4380TIP3   OH240062   3.615   1.938   0.009  0.7008 -0.4966  0.0497
 4380TIP3    H140063   3.564   2.016   7.057  0.5235 -0.6683 -0.1385
 4380TIP3    H240064   3.701   1.973   0.033  1.0123 -0.3302 -1.2078
 4381TIP3   OH240065   2.017   1.577   6.085  0.2474  0.3322 -0.2803
 4381TIP3    H140066   2.053   1.665   6.097  1.2627  0.0710 -1.2717
 4381TIP3    H240067   1.982   1.554   6.171  0.4046  1.5034  0.1217
 4382TIP3   OH240068   3.632   0.273   1.526  0.2208 -0.9722 -0.0296
 4382TIP3    H140069   3.549   0.317   1.508  0.7802 -0.5862 -1.8404
 4382TIP3    H240070   3.611   0.212   1.596 -0.9032  1.1683  1.6491
 4383TIP3   OH240071   3.535   6.350   1.192 -0.2265  0.3477 -0.3258
 4383TIP3    H140072   3.475   6.401   1.137 -0.5623 -1.4141 -1.6729
 4383TIP3    H240073   3.477   6.291   1.241  0.3236 -0.9110 -1.1487
 4384TIP3   OH240074   1.765   7.976   0.167 -0.2070 -0.3556  0.3906
 4384TIP3    H140075   1.759   7.925   0.086 -1.4576 -0.2405  0.3996
 4384TIP3    H240076   1.744   8.065   0.142  1.1893  0.0309  0.5267
 4385TIP3   OH240077   6.441   6.550   6.683  0.3842 -0.3023  0.2317
 4385TIP3    H140078   6.514   6.519   6.737  1.1933 -0.3015 -0.8213
 4385TIP3    H240079   6.438   6.488   6.609  1.1376  1.2735 -1.1804
 4386TIP3   OH240080   3.084   1.939   5.078 -0.3532  0.3999  0.7140
 4386TIP3    H140081   3.052   2.028   5.092  0.8318  0.9564 -0.0436
 4386TIP3    H240082   3.019   1.900   5.019 -0.5544  0.9543  0.5586
 4387TIP3   OH240083   5.814   7.916   1.377 -0.1779 -0.2891 -0.1748
 4387TIP3    H140084   5.892   7.962   1.345  1.0327 -2.1272 -0.0434
 4387TIP3    H240085   5.834   7.896   1.468 -1.7612  1.0723  0.5213
 4388TIP3   OH240086   0.044   1.521   6.798  0.2265 -0.8418 -0.3427
 4388TIP3    H140087   8.491   1.510   6.763 -0.9894 -2.7802  2.9135
 4388TIP3    H240088   0.034   1.579   6.873  1.5052 -1.9721  0.7569
 4389TIP3   OH240089   1.172   3.622   0.085 -0.1717 -0.1171 -0.4744
 4389TIP3    H140090   1.215   3.707   0.080  0.7900 -0.5096  0.5790
 4389TIP3    H240091   1.222   3.566   0.025 -1.1388  0.1715 -1.5841
 4390TIP3   OH240092   5.483   2.982   6.167  0.4921  0.0868  0.3041
 4390TIP3    H140093   5.477   3.040   6.242  1.7871  2.3655 -1.2338
 4390TIP3    H240094   5.467   2.894   6.203  1.1263  1.0490  3.2024
 4391TIP3   OH240095   5.674   5.025   5.562 -0.3378  0.8637  0.4776
 4391TIP3    H140096   5.636   4.941   5.587  0.4031  0.1596 -0.6483
 4391TIP3    H240097   5.605   5.089   5.580 -0.8771  0.0378  1.4483
 4392TIP3   OH240098   5.342   0.884   0.865  0.0475  0.1519  0.2897
 4392TIP3    H140099   5.304   0.879   0.953  2.9910 -1.4803  1.6143
 4392TIP3    H240100   5.320   0.972   0.834 -2.5453  0.1594  1.8915
 4393TIP3   OH240101   5.684   8.351   1.528  0.3312 -0.5930  0.0580
 4393TIP3    H140102   5.628   8.274   1.526  0.0880 -0.5090  2.0272
 4393TIP3    H240103   5.627   8.423   1.503  0.3347 -0.9053 -0.8878
 4394TIP3   OH240104   6.159   6.638   5.632 -0.0568  0.1255 -0.2704
 4394TIP3    H140105   6.129   6.726   5.656  0.3033  0.7393 -1.9547
 4394TIP3    H240106   6.254   6.640   5.648  0.0077  0.1651 -0.6588
 4395TIP3   OH240107   7.692   2.054   5.961 -0.0966  0.3225  0.0066
 4395TIP3    H140108   7.605   2.025   5.986  0.3443 -1.2537 -0.1839
 4395TIP3    H240109   7.712   2.005   5.881  0.4136  1.7170 -0.7580
 4396TIP3   OH240110   0.959   7.326   6.604  0.1119  0.0140  0.0062
 4396TIP3    H140111   0.969   7.263   6.532  1.9165  1.0707 -0.7227
 4396TIP3    H240112   1.012   7.290   6.675  0.5988  0.3670 -0.1762
 4397TIP3   OH240113   5.445   5.604   0.195 -0.5590  0.3417  0.0473
 4397TIP3    H140114   5.540   5.614   0.189 -0.6358  0.2884 -1.5971
 4397TIP3    H240115   5.415   5.686   0.234 -0.0026  1.2406 -1.3342
 4398TIP3   OH240116   5.905   6.597   5.347  0.1934  0.4484 -0.1105
 4398TIP3    H140117   5.817   6.561   5.341  0.0175  0.3788  2.0714
 4398TIP3    H240118   5.892   6.689   5.367  0.5887  0.4287  0.2655
 4399TIP3   OH240119   8.165   2.898   6.602 -0.5839  0.4757  0.0088
 4399TIP3    H140120   8.137   2.807   6.593  1.7511 -0.1803 -1.4227
 4399TIP3    H240121   8.083   2.947   6.610 -1.9228 -1.6767  0.5338
 4400TIP3   OH240122   6.210   0.273   5.194 -0.3077 -0.4358  0.2908
 4400TIP3    H140123   6.119   0.263   5.222 -0.5629  0.4211 -0.1946
 4400TIP3    H240124   6.222   0.368   5.185 -0.2274 -0.6183 -2.3789
 4401TIP3   OH240125   2.182   7.339   6.325  0.5524  0.4347  0.1741
 4401TIP3    H140126   2.208   7.419   6.279  0.8084  0.3968  0.2535
 4401TIP3    H240127   2.120   7.297   6.266  2.6374 -0.8233 -1.2418
 4402TIP3   OH240128   3.428   3.396   0.375 -0.1128  0.1954  0.1810
 4402TIP3    H140129   3.424   3.460   0.446  0.7771  0.7368 -0.2397
 4402TIP3    H240130   3.510   3.417   0.329  0.3396 -1.4235  0.2029
 4403TIP3   OH240131   1.408   8.219   0.416  0.3569  0.0908  0.1052
 4403TIP3    H140132   1.330   8.165   0.399  0.2725 -0.4330  1.9395
 4403TIP3    H240133   1.401   8.291   0.354 -1.2204 -0.3349 -0.2554
 4404TIP3   OH240134   0.145   7.909   6.277 -0.2400  0.2150 -0.0022
 4404TIP3    H140135   0.240   7.901   6.276 -0.2733 -0.6132  1.3830
 4404TIP3    H240136   0.113   7.820   6.291 -1.1952  0.5718  0.2010
 4405TIP3   OH240137   4.321   3.650   0.996  0.5758  0.1287 -0.6218
 4405TIP3    H140138   4.382   3.717   1.028  1.9462 -2.1783  2.0793
 4405TIP3    H240139   4.249   3.651   1.058 -0.3124  0.2476 -1.6140
 4406TIP3   OH240140   7.437   6.249   5.633  0.4341 -0.3725  0.0386
 4406TIP3    H140141   7.440   6.270   5.539 -0.1543  1.0372  0.2990
 4406TIP3    H240142   7.455   6.156   5.638  1.5380 -0.2716 -1.4006
 4407TIP3   OH240143   8.338   3.008   6.412  0.1505 -0.7235 -0.3380
 4407TIP3    H140144   8.262   2.981   6.464  1.0990 -0.4292  1.2713
 4407TIP3    H240145   8.378   3.079   6.463  0.7995  0.0130 -1.7837
 4408TIP3   OH240146   7.796   6.260   0.947  1.1946 -0.2404  0.0792
 4408TIP3    H140147   7.744   6.320   1.000 -1.9595 -1.4705 -1.3782
 4408TIP3    H240148   7.886   6.276   0.974  0.1735  2.5158  2.3137
 4409TIP3   OH240149   4.514   4.594   7.010  0.0128  0.0192 -0.3601
 4409TIP3    H140150   4.539   4.514   7.055  0.3906 -1.0506 -2.3443
 4409TIP3    H240151   4.474   4.649   0.007  0.5324 -1.4794  1.2208
 4410TIP3   OH240152   1.262   5.168   1.320  0.6581  0.6042 -0.2228
 4410TIP3    H140153   1.344   5.135   1.284 -0.1626 -0.4936 -1.1541
 4410TIP3    H240154   1.260   5.135   1.410  1.0261  0.2593 -0.3418
 4411TIP3   OH240155   4.725   1.334   6.761  0.0701  0.3272  0.7178
 4411TIP3    H140156   4.699   1.417   6.722 -0.1871  0.1569  0.5322
 4411TIP3    H240157   4.716   1.270   6.691 -1.1868 -0.1242  1.2798
 4412TIP3   OH240158   4.352   6.495   6.882  0.4469  0.6446 -0.1525
 4412TIP3    H140159   4.438   6.526   6.853  0.1313  0.3609 -1.4681
 4412TIP3    H240160   4.294   6.517   6.809  0.0155 -2.1192 -0.7491
 4413TIP3   OH240161   7.180   2.179   0.805  0.1143 -0.6131 -0.4666
 4413TIP3    H140162   7.155   2.092   0.836  1.2288 -0.3834  1.1600
 4413TIP3    H240163   7.267   2.193   0.840  0.9119  0.2605 -2.6249
 4414TIP3   OH240164   1.545   7.392   0.422 -0.8190 -0.4689  0.8572
 4414TIP3    H140165   1.556   7.314   0.476  1.9464  0.1991  1.4503
 4414TIP3    H240166   1.604   7.456   0.461 -0.7648  0.9503 -1.3666
 4415TIP3   OH240167   0.958   4.081   1.112  0.6081 -0.5176  0.6347
 4415TIP3    H140168   0.889   4.146   1.102  0.0138 -0.9296  1.9660
 4415TIP3    H240169   0.915   4.004   1.148  1.6102 -1.0722  0.7045
 4416TIP3   OH240170   7.092   4.084   6.098  0.4275 -0.3034  0.3325
 4416TIP3    H140171   7.083   4.098   6.192  0.5560  1.9527  0.0544
 4416TIP3    H240172   7.147   4.157   6.067  0.1182 -0.8000 -1.5452
 4417TIP3   OH240173   2.108   3.183   6.845  0.1365 -0.2800 -0.0885
 4417TIP3    H140174   2.021   3.220   6.857  0.4928  0.8953 -0.8710
 4417TIP3    H240175   2.126   3.192   6.752  1.4353  0.3497  0.1921
 4418TIP3   OH240176   3.429   5.089   6.033  0.4692 -0.4699  0.2580
 4418TIP3    H140177   3.503   5.149   6.021  0.2623 -0.2278  0.1857
 4418TIP3    H240178   3.352   5.141   6.011  0.4351 -1.3857 -2.0821
 4419TIP3   OH240179   7.773   7.158   1.040  0.2241  0.7202 -0.1351
 4419TIP3    H140180   7.776   7.240   1.091 -2.0608  0.1897  1.0089
 4419TIP3    H240181   7.723   7.181   0.962 -0.5971  0.4118  0.2834
 4420TIP3   OH240182   4.227   7.129   1.009 -0.2111  0.2284 -0.1447
 4420TIP3    H140183   4.284   7.099   1.080 -1.1709 -0.3845  0.4016
 4420TIP3    H240184   4.258   7.083   0.932 -0.9991 -1.4406  0.4795
 4421TIP3   OH240185   4.553   0.055   6.696  0.7001  0.4769 -0.0986
 4421TIP3    H140186   4.608   8.513   6.683  0.6912  0.3743  0.4420
 4421TIP3    H240187   4.606   0.114   6.748  1.1981  1.3909 -1.5893
 4422TIP3   OH240188   3.680   0.908   6.637 -0.0469  0.5157 -0.7156
 4422TIP3    H140189   3.662   0.818   6.609  0.3795  0.2116 -0.0303
 4422TIP3    H240190   3.768   0.926   6.604  0.9152 -0.2385  1.3269
 4423TIP3   OH240191   7.364   6.495   5.963  0.4837  0.2975  0.3460
 4423TIP3    H140192   7.332   6.585   5.973 -1.1738 -0.4027  2.2619
 4423TIP3    H240193   7.338   6.470   5.875 -0.9776  1.0411  0.5233
 4424TIP3   OH240194   5.530   2.185   0.046 -0.0943  0.1876  0.3296
 4424TIP3    H140195   5.530   2.265   0.098 -0.1979 -0.0467  0.6952
 4424TIP3    H240196   5.472   2.204   7.043  2.2643  1.5104 -1.2857
 4425TIP3   OH240197   7.189   3.837   6.005 -0.6124  0.9047 -0.2745
 4425TIP3    H140198   7.109   3.885   6.020 -0.0495  1.4799  0.9900
 4425TIP3    H240199   7.259   3.893   6.040  0.4190  0.6997 -1.8833
 4426TIP3   OH240200   1.553   8.503   1.428 -0.1788  0.7872 -0.7416
 4426TIP3    H140201   1.599   8.423   1.450 -1.4027 -0.0763 -1.1910
 4426TIP3    H240202   1.557   0.022   1.507 -1.7726 -0.9084  0.5786
 4427TIP3   OH240203   3.380   5.502   6.165  0.1187  0.1476 -0.0423
 4427TIP3    H140204   3.467   5.477   6.135 -0.9322 -4.9701  0.3351
 4427TIP3    H240205   3.380   5.482   6.259 -1.9793 -2.1982 -0.4403
 4428TIP3   OH240206   4.854   4.310   6.219 -0.2281  0.6075 -0.0216
 4428TIP3    H140207   4.821   4.373   6.155  2.2539  0.2070 -1.8772
 4428TIP3    H240208   4.920   4.359   6.269  2.3646 -0.5452 -2.0605
 4429TIP3   OH240209   0.389   0.906   1.406  0.6708 -0.2046 -0.5584
 4429TIP3    H140210   0.428   0.904   1.494 -0.7038 -1.4310  0.0683
 4429TIP3    H240211   0.386   0.999   1.384  0.1482  0.2214  1.1276
 4430TIP3   OH240212   6.234   2.427   0.018  0.0835 -0.2469  0.1022
 4430TIP3    H140213   6.189   2.373   0.082 -1.0471  0.7297  0.1670
 4430TIP3    H240214   6.254   2.508   0.065  1.1936 -0.3393 -0.1744
 4431TIP3   OH240215   0.412   5.390   6.998 -0.1472  0.4714 -0.0786
 4431TIP3    H140216   0.318   5.389   7.016  0.0822  2.2307  1.5793
 4431TIP3    H240217   0.451   5.345   0.003  0.4246  0.9350 -0.0934
 4432TIP3   OH240218   2.899   5.244   5.941 -0.6214  0.2967  0.2882
 4432TIP3    H140219   2.920   5.336   5.952 -1.3603  0.4748  0.2087
 4432TIP3    H240220   2.850   5.220   6.019 -0.6309  0.0271  0.2024
 4433TIP3   OH240221   4.933   1.172   1.681 -0.4684  0.1596 -0.2380
 4433TIP3    H140222   4.904   1.257   1.712 -1.8048  0.2477 -1.5539
 4433TIP3    H240223   4.887   1.109   1.737 -1.2103  0.3227 -0.6404
 4434TIP3   OH240224   5.595   1.382   6.646  0.6463 -0.4393 -0.3894
 4434TIP3    H140225   5.655   1.394   6.573  1.0953 -0.7080 -0.0723
 4434TIP3    H240226   5.518   1.435   6.624  1.0322 -0.0288 -0.7631
 4435TIP3   OH240227   2.403   8.149   6.880  0.0811 -0.5259 -0.6006
 4435TIP3    H140228   2.354   8.067   6.889  0.6373 -1.0722 -2.1345
 4435TIP3    H240229   2.343   8.208   6.834 -0.6789  0.3096  1.3510
 4436TIP3   OH240230   2.475   0.007   6.447 -0.0423  0.3772 -0.3412
 4436TIP3    H140231   2.404   0.061   6.483  0.6364  1.2677 -0.3021
 4436TIP3    H240232   2.555   0.055   6.470  0.6368 -1.0314  0.3660
 4437TIP3   OH240233   2.919   6.419   0.669 -0.4515  0.5160 -0.3849
 4437TIP3    H140234   2.839   6.387   0.626 -0.1737 -0.4681 -0.1957
 4437TIP3    H240235   2.888   6.457   0.751 -0.8278  1.0626 -0.7730
 4438TIP3   OH240236   3.006   2.238   5.364 -0.3203 -0.0182  0.4894
 4438TIP3    H140237   3.009   2.149   5.329 -0.2144 -0.2197  0.9922
 4438TIP3    H240238   2.989   2.294   5.288 -1.3075 -0.5537  0.2970
 4439TIP3   OH240239   5.764   3.505   5.760  0.4579 -0.0652 -0.2422
 4439TIP3    H140240   5.804   3.530   5.677  2.3202 -1.7123  0.0752
 4439TIP3    H240241   5.692   3.446   5.735  1.6606 -1.4045 -0.7327
 4440TIP3   OH240242   3.384   3.299   6.508 -0.4783  0.4714  0.2774
 4440TIP3    H140243   3.400   3.285   6.601 -1.6966  2.1229  0.7821
 4440TIP3    H240244   3.288   3.302   6.501 -0.7606 -4.2300 -1.7957
 4441TIP3   OH240245   6.649   2.912   6.622  0.6107  0.3844 -0.1652
 4441TIP3    H140246   6.636   2.876   6.535 -0.8618 -0.1348  0.2398
 4441TIP3    H240247   6.609   2.999   6.619 -1.3711 -0.4574  0.5499
 4442TIP3   OH240248   1.556   6.161   5.892 -0.2560 -0.4010  0.0480
 4442TIP3    H140249   1.611   6.114   5.955 -0.7564 -0.5623  0.3658
 4442TIP3    H240250   1.595   6.249   5.888  0.8323 -0.8932 -0.7355
 4443TIP3   OH240251   7.422   2.162   0.906  0.3765 -0.1175  0.2940
 4443TIP3    H140252   7.445   2.093   0.844  1.2374 -0.4249  0.9344
 4443TIP3    H240253   7.499   2.219   0.909 -0.5669  1.2841 -0.7298
 4444TIP3   OH240254   0.883   0.404   6.599 -0.5016 -0.1120  0.0725
 4444TIP3    H140255   0.892   0.374   6.690  0.4525 -0.2387 -0.0496
 4444TIP3    H240256   0.971   0.396   6.563 -0.7644  0.4399 -0.7155
 4445TIP3   OH240257   5.507   7.249   0.551 -0.4611  0.4482 -0.0044
 4445TIP3    H140258   5.493   7.300   0.630  0.1896  0.0152  0.3994
 4445TIP3    H240259   5.448   7.288   0.486 -2.9595 -0.7627  1.3658
 4446TIP3   OH240260   3.652   6.472   1.647 -1.1315  0.1712 -0.5461
 4446TIP3    H140261   3.617   6.407   1.709 -2.2988 -0.1404 -1.4916
 4446TIP3    H240262   3.620   6.556   1.680  0.1610  0.2684  0.5327
 4447TIP3   OH240263   3.945   8.406   0.144 -0.2806 -0.0661 -0.2606
 4447TIP3    H140264   3.992   8.455   0.212 -0.0581 -1.1275  0.3759
 4447TIP3    H240265   4.011   8.388   0.077 -0.1732 -0.1546 -0.1320
 4448TIP3   OH240266   0.889   1.901   0.836  0.3616  0.0709  0.7596
 4448TIP3    H140267   0.896   1.926   0.929  1.9624  0.6175  0.5225
 4448TIP3    H240268   0.802   1.862   0.829 -0.6627  1.9405  2.0365
 4449TIP3   OH240269   3.683   2.056   5.740 -0.8399  0.5840 -0.1928
 4449TIP3    H140270   3.602   2.050   5.792 -1.7098  0.3924 -1.5267
 4449TIP3    H240271   3.654   2.081   5.653  0.6783  1.8237 -0.3885
 4450TIP3   OH240272   8.026   4.567   6.598  0.2413 -0.4570  0.0032
 4450TIP3    H140273   8.005   4.656   6.625 -1.0566 -1.0700  1.1079
 4450TIP3    H240274   8.092   4.537   6.660  2.1394  0.3540 -1.5273
 4451TIP3   OH240275   4.986   7.726   1.286 -0.1150  0.2003  0.1769
 4451TIP3    H140276   5.075   7.743   1.256 -0.5346  1.6170 -0.3222
 4451TIP3    H240277   4.966   7.797   1.346 -0.8445 -0.2186  0.4465
 4452TIP3   OH240278   5.263   3.599   1.840 -0.0256  0.7188  0.2921
 4452TIP3    H140279   5.203   3.542   1.791 -1.3560  0.5862  1.9764
 4452TIP3    H240280   5.346   3.552   1.838 -1.1192 -1.4877  1.7733
 4453TIP3   OH240281   8.157   4.734   0.237  0.3136  0.1166 -0.1263
 4453TIP3    H140282   8.109   4.690   0.167  1.8453 -1.5072 -0.2593
 4453TIP3    H240283   8.202   4.662   0.282  0.8935  1.3387  1.2941
 4454TIP3   OH240284   4.274   4.440   0.365 -0.0122  0.0748 -0.2916
 4454TIP3    H140285   4.253   4.349   0.348  1.5211 -0.5779  1.0864
 4454TIP3    H240286   4.273   4.448   0.460 -1.7732  1.9484 -0.3810
 4455TIP3   OH240287   4.063   0.707   0.051 -0.2001 -0.2466  0.0058
 4455TIP3    H140288   4.062   0.705   7.027 -0.2541 -0.4699  0.0118
 4455TIP3    H240289   4.129   0.642   0.076 -0.2193 -0.2227  0.1230
 4456TIP3   OH240290   7.960   1.657   0.622 -0.7695 -0.5232  0.1502
 4456TIP3    H140291   7.913   1.740   0.617  0.8765  0.4064 -0.6000
 4456TIP3    H240292   8.042   1.678   0.668 -0.1702 -1.6479 -0.3633
 4457TIP3   OH240293   2.075   4.861   1.259  0.0437  0.4609 -0.2576
 4457TIP3    H140294   1.990   4.830   1.290  0.3502  0.5729  0.7229
 4457TIP3    H240295   2.055   4.943   1.213 -0.3770  0.4987 -0.0130
 4458TIP3   OH240296   3.850   6.106   6.555  0.3891 -0.2726 -0.1683
 4458TIP3    H140297   3.849   6.169   6.627 -0.8442 -0.5226  0.0573
 4458TIP3    H240298   3.892   6.028   6.592 -1.0258 -0.7190  0.5992
 4459TIP3   OH240299   2.165   5.373   5.719  0.0895 -0.5475 -0.5669
 4459TIP3    H140300   2.204   5.435   5.782 -1.8129  0.7132 -0.5410
 4459TIP3    H240301   2.129   5.304   5.774 -1.8326  0.7001 -0.1659
 4460TIP3   OH240302   0.745   4.778   6.459  0.4464  0.0138  0.3057
 4460TIP3    H140303   0.781   4.866   6.471 -0.0672  0.0655  1.5818
 4460TIP3    H240304   0.689   4.764   6.535  0.0302 -1.1831 -0.1980
 4461TIP3   OH240305   2.165   6.306   5.925 -0.2637 -0.0516  0.5801
 4461TIP3    H140306   2.195   6.238   5.864  0.0253  0.9821 -0.4662
 4461TIP3    H240307   2.186   6.388   5.882  0.1053  0.7302  2.1706
 4462TIP3   OH240308   1.514   2.703   6.440 -0.0756 -0.0480 -0.0275
 4462TIP3    H140309   1.533   2.750   6.359  1.7513 -1.6573 -0.6207
 4462TIP3    H240310   1.516   2.770   6.508  0.6237  1.0069 -1.0485
 4463TIP3   OH240311   7.824   3.600   1.596 -1.0144  0.4798  0.0737
 4463TIP3    H140312   7.874   3.586   1.516  0.2419 -1.4112  1.1273
 4463TIP3    H240313   7.877   3.662   1.646  0.3871 -1.5248  1.1905
 4464TIP3   OH240314   1.717   2.320   7.031 -0.2959 -0.2922  0.1931
 4464TIP3    H140315   1.661   2.394   7.009 -0.6626 -0.7997 -0.6603
 4464TIP3    H240316   1.720   2.319   0.056  1.2848  1.9644  0.2265
 4465TIP3   OH240317   7.084   3.392   6.039  0.5553 -0.1535 -0.4628
 4465TIP3    H140318   7.044   3.367   5.956  0.7073  0.2360 -0.6586
 4465TIP3    H240319   7.021   3.366   6.106 -0.9794  2.3143 -0.8636
 4466TIP3   OH240320   6.821   4.612   6.054 -0.1600  0.7049  0.1569
 4466TIP3    H140321   6.756   4.565   6.105 -0.6561  0.0757 -1.0122
 4466TIP3    H240322   6.783   4.699   6.040 -0.2029  0.7416  0.5036
 4467TIP3   OH240323   5.864   2.467   6.454 -0.1131  0.2348 -0.5317
 4467TIP3    H140324   5.837   2.493   6.366 -2.3472  0.1565  0.0607
 4467TIP3    H240325   5.782   2.447   6.499  1.0830 -1.4806  1.0385
 4468TIP3   OH240326   6.379   3.371   6.677  0.5127 -0.0936  0.0811
 4468TIP3    H140327   6.380   3.352   6.583 -1.3697 -1.7248  0.3331
 4468TIP3    H240328   6.397   3.465   6.681 -0.0981  0.1886 -1.9890
 4469TIP3   OH240329   3.881   0.613   0.950 -0.2643  0.4235  0.7811
 4469TIP3    H140330   3.890   0.638   1.042 -0.2597 -1.1041  1.2335
 4469TIP3    H240331   3.933   0.533   0.942 -2.2560 -0.8827  0.0998
 4470TIP3   OH240332   6.473   1.749   0.748  0.1130 -0.5434  0.0379
 4470TIP3    H140333   6.529   1.702   0.810 -0.8002 -0.6464  0.7951
 4470TIP3    H240334   6.471   1.839   0.780 -0.1257 -0.5306 -0.0130
 4471TIP3   OH240335   2.177   0.972   5.522 -0.4995  0.4697 -0.6662
 4471TIP3    H140336   2.091   1.013   5.531 -0.8128 -0.4630  0.9961
 4471TIP3    H240337   2.215   1.013   5.445 -2.1229  1.4596 -0.9901
 4472TIP3   OH240338   0.089   5.619   4.635  0.3627 -0.6681 -0.1238
 4472TIP3    H140339   0.072   5.580   4.721  1.6630 -0.1421  0.3953
 4472TIP3    H240340   0.178   5.652   4.641  0.3920 -0.4192 -1.6161
 4473TIP3   OH240341   8.215   0.306   5.592  0.0968 -0.0479 -0.6382
 4473TIP3    H140342   8.171   0.221   5.594 -1.6875  0.8320  0.8697
 4473TIP3    H240343   8.202   0.339   5.503 -0.2536 -0.8273 -0.8797
 4474TIP3   OH240344   6.197   4.471   5.635 -0.2246 -0.1135 -0.0404
 4474TIP3    H140345   6.188   4.403   5.567 -0.9501 -1.2079  1.1016
 4474TIP3    H240346   6.291   4.480   5.648 -0.0742  0.1244 -1.1919
 4475TIP3   OH240347   4.365   7.903   6.063  0.1075 -0.1922 -0.0897
 4475TIP3    H140348   4.313   7.823   6.078  0.0260 -0.0756  0.2788
 4475TIP3    H240349   4.322   7.947   5.990  0.3957 -0.6894 -0.5617
 4476TIP3   OH240350   3.525   3.385   1.228  0.4660  0.0123 -0.0630
 4476TIP3    H140351   3.541   3.446   1.156 -2.3780 -0.8255 -1.5822
 4476TIP3    H240352   3.505   3.440   1.303 -0.4207  0.9851 -0.9743
 4477TIP3   OH240353   6.565   6.525   0.169 -0.6149  0.0394 -0.3514
 4477TIP3    H140354   6.555   6.441   0.125 -1.2180 -0.4933  0.7644
 4477TIP3    H240355   6.547   6.590   0.101 -2.9013 -0.7792 -0.6043
 4478TIP3   OH240356   3.371   6.205   4.954  0.1042  0.3024 -0.0894
 4478TIP3    H140357   3.300   6.141   4.963  0.7319 -0.5787 -1.1474
 4478TIP3    H240358   3.329   6.290   4.966 -0.9753 -0.2473  0.1255
 4479TIP3   OH240359   5.930   3.003   5.873  0.0664  0.3320 -0.0621
 4479TIP3    H140360   5.852   2.976   5.922  0.7701 -0.4534  0.6466
 4479TIP3    H240361   5.898   3.018   5.784 -1.1814  1.5277  0.5531
 4480TIP3   OH240362   0.208   1.835   6.432  0.5533  0.9216  0.0798
 4480TIP3    H140363   0.302   1.819   6.444  0.5459  0.4698 -0.4065
 4480TIP3    H240364   0.175   1.854   6.519 -0.0432 -4.9452  1.5678
 4481TIP3   OH240365   3.653   5.868   6.632 -0.4301 -0.3851  0.2373
 4481TIP3    H140366   3.711   5.926   6.584 -1.4437 -1.2666 -2.1993
 4481TIP3    H240367   3.710   5.825   6.696  1.8134 -1.5662 -2.3505
 4482TIP3   OH240368   8.177   3.610   0.045 -0.0610  0.4780 -0.4588
 4482TIP3    H140369   8.191   3.600   0.139  1.0124  0.8182 -0.5645
 4482TIP3    H240370   8.137   3.697   0.035 -1.3588 -0.0821 -0.2253
 4483TIP3   OH240371   2.690   5.236   5.622  0.0636  0.1650 -0.1284
 4483TIP3    H140372   2.641   5.297   5.567  0.6362  0.6295 -0.1319
 4483TIP3    H240373   2.638   5.229   5.703 -0.3190  0.1720 -0.3695
 4484TIP3   OH240374   5.220   1.692   0.190  0.6827 -1.1440  0.4888
 4484TIP3    H140375   5.130   1.660   0.185  0.3184 -0.0286 -0.5616
 4484TIP3    H240376   5.272   1.627   0.143  0.0206 -0.5046 -1.2087
 4485TIP3   OH240377   5.405   2.437   6.956 -0.5027  0.2408  0.0323
 4485TIP3    H140378   5.386   2.435   7.050 -1.4913 -2.0847 -0.1421
 4485TIP3    H240379   5.500   2.421   6.951 -0.6159 -0.7297  0.6342
 4486TIP3   OH240380   2.282   5.656   0.984  0.5136 -0.3496  0.0833
 4486TIP3    H140381   2.201   5.610   1.005  1.8235 -2.2882  1.1454
 4486TIP3    H240382   2.313   5.615   0.903  0.7764 -0.0778  0.0423
 4487TIP3   OH240383   2.578   4.383   0.825  0.0014  0.3380  0.4506
 4487TIP3    H140384   2.505   4.389   0.886  0.0420 -0.3178  0.5752
 4487TIP3    H240385   2.655   4.407   0.876  0.0518 -0.3294  0.7009
 4488TIP3   OH240386   7.845   1.433   0.467 -0.3800  0.1931  0.2721
 4488TIP3    H140387   7.919   1.485   0.496 -0.3585 -0.4658  1.4693
 4488TIP3    H240388   7.775   1.497   0.450  0.5197  0.8411 -1.1516
 4489TIP3   OH240389   5.801   4.116   5.672  0.1594 -0.5299  0.1027
 4489TIP3    H140390   5.877   4.173   5.684  1.1420 -1.4910 -1.1400
 4489TIP3    H240391   5.729   4.161   5.715  1.0943  1.1878 -0.0557
 4490TIP3   OH240392   5.104   8.525   0.586 -0.6957 -0.0658  0.0491
 4490TIP3    H140393   5.113   0.029   0.673  0.5175 -0.7865  0.2741
 4490TIP3    H240394   5.012   0.003   0.563 -0.5955  1.8772  0.5940
 4491TIP3   OH240395   7.245   0.334   1.315 -0.0157 -0.1673 -0.0495
 4491TIP3    H140396   7.261   0.271   1.386 -0.9551 -0.6763 -0.2679
 4491TIP3    H240397   7.151   0.325   1.297 -0.0232  0.8447 -0.5257
 4492TIP3   OH240398   6.872   2.756   0.986  0.1169  0.0113 -0.1429
 4492TIP3    H140399   6.909   2.824   0.931 -0.9928 -0.8749 -2.1102
 4492TIP3    H240400   6.896   2.674   0.942 -1.8470 -0.6757 -0.0433
 4493TIP3   OH240401   7.861   0.465   0.750  0.2255 -0.1069 -0.4462
 4493TIP3    H140402   7.906   0.452   0.666  0.0296 -0.3846 -0.5093
 4493TIP3    H240403   7.832   0.377   0.775 -0.0084  0.0274 -0.2506
 4494TIP3   OH240404   3.416   6.510   1.005 -0.3027 -0.1463 -0.4271
 4494TIP3    H140405   3.342   6.510   0.945 -0.4789 -4.7439 -0.5710
 4494TIP3    H240406   3.488   6.547   0.954 -1.5284  0.5338 -1.7331
 4495TIP3   OH240407   3.995   2.510   0.192 -0.3184 -0.3526  0.4145
 4495TIP3    H140408   3.904   2.539   0.194 -0.3151 -0.3546  0.6716
 4495TIP3    H240409   4.040   2.577   0.140 -0.7343 -1.1474 -1.0156
 4496TIP3   OH240410   3.809   3.096   6.926  0.0072 -0.7139 -0.7733
 4496TIP3    H140411   3.778   3.023   6.872 -0.1957 -0.1842 -1.3728
 4496TIP3    H240412   3.865   3.147   6.868 -0.7572  0.2412 -0.6927
 4497TIP3   OH240413   7.527   0.799   0.471  0.3903 -0.1243 -0.5343
 4497TIP3    H140414   7.615   0.829   0.447 -0.0880  1.1833 -0.7327
 4497TIP3    H240415   7.534   0.704   0.474  1.4973 -0.1220 -1.8488
 4498TIP3   OH240416   2.001   0.937   0.465 -0.2639  0.2413  0.2553
 4498TIP3    H140417   1.951   0.867   0.507 -1.4894  1.0097  0.1273
 4498TIP3    H240418   2.063   0.965   0.532 -1.5915  0.8470  1.2918
 4499TIP3   OH240419   7.710   0.104   6.137  0.3359 -0.6254 -0.4485
 4499TIP3    H140420   7.767   0.171   6.173  0.1485 -2.2520  3.3680
 4499TIP3    H240421   7.621   0.140   6.148  0.3005 -0.9762  0.6037
 4500TIP3   OH240422   6.448   8.386   6.838  0.2641  0.3701  0.6415
 4500TIP3    H140423   6.516   8.373   6.903 -0.5698 -0.5835  1.3676
 4500TIP3    H240424   6.464   8.319   6.772  1.1697  1.4002 -0.2228
 4501TIP3   OH240425   2.809   0.480   6.064 -0.1629 -0.3343 -0.2470
 4501TIP3    H140426   2.880   0.521   6.014 -0.0188  0.5139  0.6061
 4501TIP3    H240427   2.802   0.534   6.143 -0.0584 -1.9178  0.8801
 4502TIP3   OH240428   4.370   5.608   5.567  0.4834 -0.1593 -0.3110
 4502TIP3    H140429   4.310   5.654   5.508 -0.1784 -0.3358  0.2014
 4502TIP3    H240430   4.363   5.516   5.540  0.0345 -0.2655  0.1610
 4503TIP3   OH240431   3.647   3.846   4.580  0.5159 -0.6751 -0.0583
 4503TIP3    H140432   3.602   3.762   4.573  1.7827 -1.5833  1.8028
 4503TIP3    H240433   3.593   3.898   4.640  1.5281 -1.5231  1.6502
 4504TIP3   OH240434   7.951   2.011   5.290 -0.2025 -0.1934  0.5047
 4504TIP3    H140435   7.969   2.102   5.267  0.1995  0.3068  2.6078
 4504TIP3    H240436   7.979   1.961   5.214  0.3414  1.3665 -0.3654
 4505TIP3   OH240437   3.083   7.677   6.173 -0.0810  0.0530  0.0625
 4505TIP3    H140438   3.067   7.694   6.080  0.3365 -1.5271 -0.3245
 4505TIP3    H240439   3.001   7.703   6.216 -0.6294 -0.0655 -0.8654
 4506TIP3   OH240440   4.449   0.887   0.912 -0.7121  0.4362  0.2486
 4506TIP3    H140441   4.464   0.793   0.917  1.0946  0.7085  0.8674
 4506TIP3    H240442   4.356   0.898   0.932 -0.6543 -1.1187  1.6302
 4507TIP3   OH240443   0.874   5.129   6.941  0.0866  0.3405  0.2573
 4507TIP3    H140444   0.936   5.149   7.011 -0.0392  2.7686 -0.2325
 4507TIP3    H240445   0.884   5.202   6.879 -0.7593 -1.0368 -1.5892
 4508TIP3   OH240446   5.091   0.364   0.911  0.0515  0.1163  0.1796
 4508TIP3    H140447   5.065   0.415   0.988  0.2488  1.5198 -0.6520
 4508TIP3    H240448   5.131   0.428   0.852 -2.2918 -0.3744 -2.1772
 4509TIP3   OH240449   8.113   7.022   7.017 -0.0580  0.9602 -0.0181
 4509TIP3    H140450   8.088   7.008   6.925 -0.5408 -0.2201  0.2764
 4509TIP3    H240451   8.163   6.944   7.040  1.1892  1.8264  0.3687
 4510TIP3   OH240452   0.490   0.702   1.286  0.2677 -0.2999 -0.2414
 4510TIP3    H140453   0.545   0.666   1.356 -1.1007 -0.0267  1.0275
 4510TIP3    H240454   0.454   0.783   1.324  0.0537  0.2330 -1.5350
 4511TIP3   OH240455   3.229   6.001   5.105 -0.1753  0.3398 -0.4795
 4511TIP3    H140456   3.228   5.907   5.087  2.0336  0.1950 -0.0961
 4511TIP3    H240457   3.201   6.009   5.196 -3.0366  0.3499 -1.2712
 4512TIP3   OH240458   3.753   1.432   1.707 -0.0833  0.2309 -0.1464
 4512TIP3    H140459   3.787   1.430   1.797 -2.1760  0.9193  0.7275
 4512TIP3    H240460   3.733   1.524   1.692  1.7144  0.3823 -1.9621
 4513TIP3   OH240461   1.638   5.166   5.385 -0.0631  0.4712 -0.5945
 4513TIP3    H140462   1.644   5.233   5.452  0.9914 -0.3789  0.1843
 4513TIP3    H240463   1.632   5.215   5.303 -0.4965  1.5137  0.0404
 4514TIP3   OH240464   4.306   2.724   6.572  0.5325  0.2227  0.2697
 4514TIP3    H140465   4.394   2.685   6.573  0.1008 -0.9566 -1.9134
 4514TIP3    H240466   4.283   2.730   6.480 -1.9255 -0.0241  0.7983
 4515TIP3   OH240467   4.699   2.740   1.514  0.4326  0.1902 -0.3061
 4515TIP3    H140468   4.717   2.696   1.597  1.7345  1.1443 -0.0630
 4515TIP3    H240469   4.660   2.824   1.539  1.9302  1.0060 -0.5708
 4516TIP3   OH240470   2.742   4.971   0.785  0.2485 -0.1790 -0.0637
 4516TIP3    H140471   2.667   5.023   0.760  0.6078 -0.3750 -1.6566
 4516TIP3    H240472   2.749   4.982   0.880 -1.3089  0.4430  0.0016
 4517TIP3   OH240473   7.041   3.961   5.724 -0.3980 -0.4829  0.0284
 4517TIP3    H140474   6.977   4.031   5.737  0.1755 -0.1378  1.1889
 4517TIP3    H240475   7.060   3.963   5.630 -0.9211  0.4477 -0.0756
 4518TIP3   OH240476   3.259   7.476   5.799  0.2449 -0.4076 -0.0509
 4518TIP3    H140477   3.210   7.394   5.793 -0.9724  0.0256  2.7081
 4518TIP3    H240478   3.193   7.543   5.812  1.3205  0.8639 -0.8995
 4519TIP3   OH240479   0.134   5.212   6.385  0.5510 -0.1500 -0.3579
 4519TIP3    H140480   0.152   5.165   6.466 -0.6977 -0.3233 -0.1566
 4519TIP3    H240481   0.191   5.289   6.389 -1.9974  1.8222  2.4985
 4520TIP3   OH240482   0.622   1.528   5.820 -0.1517 -0.2469  0.2244
 4520TIP3    H140483   0.653   1.618   5.808 -0.4847 -0.1427  0.1292
 4520TIP3    H240484   0.559   1.534   5.892 -0.8512 -0.2444 -0.3722
 4521TIP3   OH240485   2.710   7.771   5.520  0.3064  0.5928 -0.3567
 4521TIP3    H140486   2.637   7.717   5.488 -1.0947  1.8975  0.4714
 4521TIP3    H240487   2.757   7.713   5.580 -1.3872  0.3084  0.8041
 4522TIP3   OH240488   6.189   0.569   5.847 -0.1767 -0.2100  0.6032
 4522TIP3    H140489   6.192   0.548   5.754 -1.5345 -2.8702  1.0643
 4522TIP3    H240490   6.281   0.579   5.872  0.1838  1.5181 -1.1503
 4523TIP3   OH240491   4.331   4.848   5.401 -0.4214  0.1897  0.2629
 4523TIP3    H140492   4.369   4.875   5.485 -0.1510  1.9671 -0.3880
 4523TIP3    H240493   4.275   4.921   5.376 -0.5348 -0.3393 -1.0953
 4524TIP3   OH240494   2.235   0.503   6.543 -0.2739  0.5882 -0.4090
 4524TIP3    H140495   2.246   0.503   6.638  0.6448 -0.3739 -0.4937
 4524TIP3    H240496   2.272   0.586   6.514  1.0483  0.1463 -0.0618
 4525TIP3   OH240497   5.926   6.006   6.606  0.3033 -0.1635  0.0287
 4525TIP3    H140498   5.913   6.065   6.532 -1.3095 -2.0923 -1.3477
 4525TIP3    H240499   6.018   6.016   6.629 -0.1520  3.7448  0.7174
 4526TIP3   OH240500   1.921   6.780   6.565  0.1879 -0.0803 -0.5636
 4526TIP3    H140501   1.906   6.692   6.530  1.1034 -1.4268  2.2041
 4526TIP3    H240502   2.007   6.776   6.607  1.0079  2.6549 -1.7323
 4527TIP3   OH240503   5.078   6.291   0.792  0.1117  0.2927  0.0375
 4527TIP3    H140504   5.153   6.232   0.800  0.7320  1.1658  0.8420
 4527TIP3    H240505   5.072   6.334   0.877 -0.8795  0.7504 -0.2499
 4528TIP3   OH240506   8.441   0.966   1.784 -0.1129 -0.2547 -0.0762
 4528TIP3    H140507   8.533   0.979   1.761 -0.0442 -0.1498  0.2409
 4528TIP3    H240508   8.402   1.053   1.774  0.7868  0.8719  4.0044
 4529TIP3   OH240509   0.013   6.998   5.169  0.1796 -0.3130 -0.3484
 4529TIP3    H140510   8.482   6.933   5.147 -0.5498  0.3747 -0.2174
 4529TIP3    H240511   0.023   6.993   5.264 -0.0101 -0.1069 -0.3176
 4530TIP3   OH240512   0.315   0.160   5.888  0.3547  0.0159 -0.1089
 4530TIP3    H140513   0.274   0.175   5.804 -1.4505 -0.8924  0.5585
 4530TIP3    H240514   0.336   0.066   5.888 -0.4495 -0.1786  0.7645
 4531TIP3   OH240515   0.018   1.832   6.058  0.1301 -0.0117  0.0248
 4531TIP3    H140516   8.531   1.924   6.072  0.7010  0.0467  0.5435
 4531TIP3    H240517   8.486   1.800   5.997 -0.6958  0.4678  0.6752
 4532TIP3   OH240518   2.263   4.401   0.568  0.1378 -0.6975  0.1115
 4532TIP3    H140519   2.266   4.440   0.481 -1.2366 -0.0970  0.3043
 4532TIP3    H240520   2.251   4.475   0.628 -1.0526 -1.2738  0.6128
 4533TIP3   OH240521   3.824   5.679   0.339  0.0413  0.0048 -0.3427
 4533TIP3    H140522   3.824   5.744   0.410  1.2225 -0.0269 -0.2999
 4533TIP3    H240523   3.753   5.619   0.362 -1.0481  1.2430 -0.3597
 4534TIP3   OH240524   6.499   3.461   7.033 -0.0120 -0.6119 -0.3856
 4534TIP3    H140525   6.497   3.403   0.038  1.3484 -1.8319 -1.2188
 4534TIP3    H240526   6.558   3.418   6.971  0.7575  1.4803 -1.2222
 4535TIP3   OH240527   7.797   2.842   1.571 -0.6435  0.3606 -0.3488
 4535TIP3    H140528   7.789   2.749   1.591 -1.8081  0.5005 -0.1232
 4535TIP3    H240529   7.736   2.857   1.499 -0.8873  1.0513 -0.0071
 4536TIP3   OH240530   7.110   8.386   6.873 -0.0617  0.5142 -0.2279
 4536TIP3    H140531   7.130   8.293   6.883  0.5565  0.5488 -1.0026
 4536TIP3    H240532   7.054   8.407   6.947  1.4637 -0.0060  1.1264
 4537TIP3   OH240533   8.448   1.542   1.214  0.2152  0.2280  0.4236
 4537TIP3    H140534   8.459   1.474   1.148 -2.5809  1.0133 -1.0059
 4537TIP3    H240535   8.406   1.497   1.287 -1.0400  0.2537 -0.2615
 4538TIP3   OH240536   8.219   5.444   4.639  0.3461  0.1838 -0.0095
 4538TIP3    H140537   8.239   5.402   4.555 -0.4661 -0.7731  0.2507
 4538TIP3    H240538   8.164   5.519   4.617 -0.4528 -0.4736 -0.2940
 4539TIP3   OH240539   7.785   6.875   0.704  0.0198  0.2846  0.2158
 4539TIP3    H140540   7.808   6.786   0.679  1.2161  0.7183 -0.2918
 4539TIP3    H240541   7.796   6.877   0.799 -0.7069 -0.2838  0.3260
 4540TIP3   OH240542   1.799   3.481   1.032  0.1362  0.5521 -0.1099
 4540TIP3    H140543   1.858   3.451   0.963 -0.7309 -0.2292 -0.5167
 4540TIP3    H240544   1.847   3.462   1.113 -0.1041 -1.3588 -0.3755
 4541TIP3   OH240545   3.855   0.615   6.317  0.2711  0.2130 -0.1488
 4541TIP3    H140546   3.894   0.580   6.237  1.6956 -2.3205  1.5315
 4541TIP3    H240547   3.803   0.543   6.352 -0.6266  1.3964  1.0741
 4542TIP3   OH240548   6.265   4.810   1.395  0.3700 -0.0814 -0.7340
 4542TIP3    H140549   6.343   4.756   1.407 -0.3608 -0.7942  1.0636
 4542TIP3    H240550   6.291   4.896   1.426  0.6046 -0.1653 -0.6959
 4543TIP3   OH240551   2.478   1.276   1.450  0.3342  0.1643  0.0716
 4543TIP3    H140552   2.478   1.276   1.354  2.8932  0.3844 -0.0215
 4543TIP3    H240553   2.471   1.369   1.474  1.7397  0.3332 -0.0371
 4544TIP3   OH240554   6.578   5.334   6.732  0.0412 -0.5497 -0.3906
 4544TIP3    H140555   6.633   5.294   6.799 -0.6613 -0.9744 -0.0548
 4544TIP3    H240556   6.620   5.418   6.714  0.6865 -0.7811  0.0011
 4545TIP3   OH240557   3.422   2.569   1.950 -0.2517  0.1997 -0.2454
 4545TIP3    H140558   3.456   2.505   1.888 -0.6117 -0.3552  0.1229
 4545TIP3    H240559   3.390   2.517   2.024  2.3316  0.9341  1.5326
 4546TIP3   OH240560   3.863   2.068   1.059  0.5890  0.5681 -0.2588
 4546TIP3    H140561   3.949   2.043   1.025  1.1490 -1.6471  2.4040
 4546TIP3    H240562   3.872   2.161   1.080  3.0690  0.0208  1.6574
 4547TIP3   OH240563   1.563   1.614   6.649 -1.1504  0.1489 -0.9274
 4547TIP3    H140564   1.538   1.692   6.699 -2.2837 -0.0577 -1.1495
 4547TIP3    H240565   1.503   1.613   6.575 -0.1898 -0.1447 -1.7316
 4548TIP3   OH240566   0.022   2.800   5.804 -0.4601 -0.2710 -0.2413
 4548TIP3    H140567   8.474   2.757   5.783 -0.1259 -0.6526 -0.7930
 4548TIP3    H240568   8.532   2.887   5.834 -1.2054 -1.0413  1.5477
 4549TIP3   OH240569   3.774   1.921   6.523 -0.4511  0.0586  0.2031
 4549TIP3    H140570   3.742   1.869   6.449 -1.1244  0.1617  0.4176
 4549TIP3    H240571   3.797   1.856   6.590  1.6294 -0.1323 -0.6389
 4550TIP3   OH240572   1.443   4.272   6.544  0.8440  0.2230  0.3573
 4550TIP3    H140573   1.442   4.361   6.510 -1.2622  0.6902  1.5111
 4550TIP3    H240574   1.492   4.222   6.478  2.0515  2.1857 -0.3137
 4551TIP3   OH240575   0.809   4.021   5.742  0.3367 -0.4131 -0.7019
 4551TIP3    H140576   0.871   3.973   5.798  2.5131  1.3070 -1.4910
 4551TIP3    H240577   0.863   4.055   5.671 -1.5927  1.0652 -1.5369
 4552TIP3   OH240578   3.694   7.782   5.581  0.0275  0.1270 -0.3588
 4552TIP3    H140579   3.639   7.860   5.590  0.4708  0.5161 -0.9243
 4552TIP3    H240580   3.634   7.709   5.593 -0.7452  0.5330 -1.5126
 4553TIP3   OH240581   1.899   0.117   6.172 -0.3457 -0.2833 -0.0010
 4553TIP3    H140582   1.874   0.189   6.229 -1.2201 -2.5056  2.6147
 4553TIP3    H240583   1.995   0.113   6.178 -0.4421 -0.6363  1.5830
 4554TIP3   OH240584   4.550   4.477   0.331 -0.5542  0.0680 -0.0697
 4554TIP3    H140585   4.461   4.455   0.306 -0.6480  0.7963 -0.4093
 4554TIP3    H240586   4.542   4.559   0.379 -0.0939  0.0134  0.1115
 4555TIP3   OH240587   7.547   0.664   5.640 -0.1870  0.9422 -0.2419
 4555TIP3    H140588   7.458   0.655   5.603 -0.1968  0.0828 -0.0277
 4555TIP3    H240589   7.533   0.689   5.731 -0.1572  3.8067 -0.9296
 4556TIP3   OH240590   5.109   6.677   5.446 -0.1828  0.0749 -0.0880
 4556TIP3    H140591   5.090   6.585   5.462  1.3595 -0.1608  0.5155
 4556TIP3    H240592   5.156   6.677   5.362  1.4207  0.0740  0.7721
 4557TIP3   OH240593   0.120   5.708   6.694  0.3381  0.2290  0.1438
 4557TIP3    H140594   0.052   5.752   6.745  0.1539  0.3405 -0.1901
 4557TIP3    H240595   0.190   5.772   6.686  0.3494  0.2261  0.2180
 4558TIP3   OH240596   4.887   1.543   6.185 -0.2774  0.2268  0.2388
 4558TIP3    H140597   4.879   1.541   6.090  1.5639  1.4644 -0.0036
 4558TIP3    H240598   4.820   1.483   6.217 -0.4942 -0.7195 -1.8624
 4559TIP3   OH240599   1.876   4.990   0.084  0.1599  0.0270 -0.4734
 4559TIP3    H140600   1.921   4.915   0.124  0.4504  0.7827  0.6589
 4559TIP3    H240601   1.885   4.975   7.061 -0.7259 -1.9094 -0.3032
 4560TIP3   OH240602   5.951   6.993   6.910  0.4016 -0.0342  0.3868
 4560TIP3    H140603   5.972   6.926   6.975 -0.2419 -0.9569 -0.3051
 4560TIP3    H240604   5.931   6.942   6.831 -0.5821  0.9597 -0.0251
 4561TIP3   OH240605   8.288   6.950   0.262  0.0973 -0.5344  0.3885
 4561TIP3    H140606   8.261   7.041   0.253 -0.3416 -0.7254 -0.3121
 4561TIP3    H240607   8.282   6.931   0.356  3.3934  1.1306  1.0951
 4562TIP3   OH240608   7.387   4.648   0.428 -0.1623  0.2064  0.1443
 4562TIP3    H140609   7.369   4.601   0.510 -0.5071 -0.8043 -0.4846
 4562TIP3    H240610   7.445   4.720   0.453  0.1038 -0.3554  1.1994
 4563TIP3   OH240611   4.462   4.058   6.924  0.1416  0.1125 -0.4850
 4563TIP3    H140612   4.395   3.991   6.911 -0.0947  0.1444  0.5524
 4563TIP3    H240613   4.452   4.086   7.014  1.9484 -0.3179 -0.1029
 4564TIP3   OH240614   0.052   6.628   5.168 -0.0232 -0.1409 -0.2459
 4564TIP3    H140615   0.083   6.608   5.080  1.7496 -1.4477  0.6039
 4564TIP3    H240616   0.008   6.713   5.160  1.9954  0.8261 -1.9884
 4565TIP3   OH240617   6.479   8.240   0.649 -0.2429  0.1889 -0.6797
 4565TIP3    H140618   6.418   8.169   0.669 -1.3969  1.0451 -1.1024
 4565TIP3    H240619   6.466   8.303   0.719  0.0755  0.4388 -0.8449
 4566TIP3   OH240620   3.323   5.491   0.836 -0.2803 -0.5813 -0.0519
 4566TIP3    H140621   3.349   5.543   0.760  0.3559  1.2322  1.3280
 4566TIP3    H240622   3.401   5.442   0.860 -0.2351 -0.5162 -0.0664
 4567TIP3   OH240623   3.291   3.184   4.924 -0.1221 -0.3749 -0.2971
 4567TIP3    H140624   3.343   3.264   4.919  0.6838 -0.9107 -0.8817
 4567TIP3    H240625   3.334   3.131   4.991 -0.2781 -0.5702 -0.3473
 4568TIP3   OH240626   6.552   1.488   5.614 -0.1663 -0.0844 -0.7152
 4568TIP3    H140627   6.641   1.461   5.639 -0.3972 -0.7903 -0.6394
 4568TIP3    H240628   6.563   1.532   5.530  0.5688  1.9359  0.3720
 4569TIP3   OH240629   7.693   1.233   0.638  0.0386 -0.1558 -0.0848
 4569TIP3    H140630   7.742   1.296   0.585 -0.6739  0.1761 -0.3816
 4569TIP3    H240631   7.614   1.217   0.586 -0.2088 -0.5863  0.4265
 4570TIP3   OH240632   8.264   6.899   0.554 -0.5958  0.7041 -0.0328
 4570TIP3    H140633   8.182   6.947   0.559  0.3246  2.5863 -1.6518
 4570TIP3    H240634   8.297   6.899   0.644 -2.0114  0.5298  0.5054
 4571TIP3   OH240635   2.060   4.439   7.010 -0.2852 -0.0168  0.1737
 4571TIP3    H140636   2.013   4.522   7.010  0.1867  0.2615  0.8826
 4571TIP3    H240637   2.009   4.383   7.069  0.2726  0.3046  0.9912
 4572TIP3   OH240638   8.124   3.368   0.765 -0.6065 -0.4218  0.0878
 4572TIP3    H140639   8.109   3.400   0.854 -0.9407 -1.8661  0.5785
 4572TIP3    H240640   8.131   3.447   0.712  0.6690  0.4937  1.5532
 4573TIP3   OH240641   3.972   1.223   0.803 -0.0899  0.6253  0.0510
 4573TIP3    H140642   3.934   1.215   0.716  0.1374 -2.9223  0.1516
 4573TIP3    H240643   4.066   1.237   0.787  0.1892 -1.4662 -0.3548
 4574TIP3   OH240644   2.059   6.954   6.807  0.0317  0.0912  0.0747
 4574TIP3    H140645   2.142   6.927   6.769 -1.2012 -3.0827 -0.6157
 4574TIP3    H240646   2.055   6.908   6.891 -0.1160  2.0264  1.2116
 4575TIP3   OH240647   6.712   0.805   5.050 -0.5732 -0.3134 -0.1473
 4575TIP3    H140648   6.717   0.811   5.145 -1.0247  1.2959 -0.1898
 4575TIP3    H240649   6.734   0.893   5.019 -0.2176 -0.8620 -1.5500
 4576TIP3   OH240650   4.271   4.699   6.409  0.4904  0.3775 -0.6798
 4576TIP3    H140651   4.356   4.719   6.449  0.2349  0.5049 -0.1945
 4576TIP3    H240652   4.207   4.736   6.470  0.1158  2.5502 -2.2740
 4577TIP3   OH240653   8.110   5.274   0.720 -0.9124 -0.0392  0.2338
 4577TIP3    H140654   8.076   5.305   0.636  0.9906 -2.8320 -1.7462
 4577TIP3    H240655   8.174   5.207   0.697  1.2052  0.4420  3.8949
 4578TIP3   OH240656   7.582   3.524   0.152 -0.3500 -0.4731  0.0156
 4578TIP3    H140657   7.537   3.531   0.068 -0.8303 -1.9875  0.1148
 4578TIP3    H240658   7.675   3.525   0.130 -0.4520  0.2904 -0.4098
 4579TIP3   OH240659   7.675   3.177   5.723 -0.2843  0.4301 -0.1929
 4579TIP3    H140660   7.630   3.138   5.648  1.0395 -0.8139 -0.3681
 4579TIP3    H240661   7.606   3.187   5.789 -1.1486  0.1341 -1.0271
 4580TIP3   OH240662   8.324   2.943   5.735 -0.0565  0.9748 -0.0929
 4580TIP3    H140663   8.316   2.947   5.640 -1.3273  2.9385  0.0365
 4580TIP3    H240664   8.257   2.881   5.763  0.9432 -0.3237 -0.5073
 4581TIP3   OH240665   7.205   5.112   1.026 -0.4700  0.6130  0.2869
 4581TIP3    H140666   7.138   5.156   1.078 -0.9674 -0.4750  0.5851
 4581TIP3    H240667   7.156   5.064   0.959  0.0025 -0.1366  0.4631
 4582TIP3   OH240668   1.398   5.731   5.527  0.3812 -0.1817 -0.1537
 4582TIP3    H140669   1.328   5.792   5.504 -0.1543 -0.7730 -0.1353
 4582TIP3    H240670   1.426   5.758   5.614 -1.3958 -1.2982  0.8399
 4583TIP3   OH240671   0.723   7.952   1.128 -0.5443  0.1913  0.0836
 4583TIP3    H140672   0.707   7.870   1.082  1.5412  0.2852 -0.9493
 4583TIP3    H240673   0.798   7.934   1.185  1.3472  1.8239 -1.7096
 4584TIP3   OH240674   8.115   8.014   6.179  0.4477 -0.2365  0.5074
 4584TIP3    H140675   8.154   7.977   6.100  0.8981 -0.7814  0.9794
 4584TIP3    H240676   8.027   8.040   6.152  1.6258  2.5615 -1.0296
 4585TIP3   OH240677   8.174   5.356   1.876 -0.3400  0.3740 -0.0270
 4585TIP3    H140678   8.241   5.416   1.844  0.9127 -0.1454  1.5037
 4585TIP3    H240679   8.148   5.391   1.961 -1.2849  0.0048 -0.1461
 4586TIP3   OH240680   5.118   7.498   1.399 -0.1154  0.2543  0.2650
 4586TIP3    H140681   5.175   7.554   1.451 -0.0692  0.0379  0.4478
 4586TIP3    H240682   5.042   7.552   1.380 -0.2984  0.2145  0.8721
 4587TIP3   OH240683   1.389   4.155   6.141 -0.5955  0.1487 -0.0623
 4587TIP3    H140684   1.351   4.115   6.218 -0.7084 -0.2862 -0.3443
 4587TIP3    H240685   1.372   4.249   6.152 -0.0607  0.1628  0.7433
 4588TIP3   OH240686   6.762   4.273   5.404 -0.0506  0.1098 -0.1957
 4588TIP3    H140687   6.831   4.219   5.365  0.5432 -0.6108  1.7471
 4588TIP3    H240688   6.733   4.329   5.332  0.4585 -1.6430 -1.8618
 4589TIP3   OH240689   4.288   7.124   5.229  0.1254 -0.6990  0.3904
 4589TIP3    H140690   4.218   7.153   5.287  2.3283 -0.3678  3.1054
 4589TIP3    H240691   4.316   7.039   5.264 -0.6303 -2.1796 -2.3167
 4590TIP3   OH240692   5.076   0.125   1.178  0.0094 -0.0782 -0.5354
 4590TIP3    H140693   5.028   0.206   1.191  1.2563  0.8109 -1.2617
 4590TIP3    H240694   5.148   0.128   1.242 -0.8379 -1.3759  0.5253
 4591TIP3   OH240695   4.278   5.147   5.994 -0.4348 -0.0744  0.2031
 4591TIP3    H140696   4.366   5.172   5.965 -0.1153 -0.4522  0.8115
 4591TIP3    H240697   4.243   5.094   5.923 -0.5533  0.8818 -0.4662
 4592TIP3   OH240698   7.594   1.658   1.176 -0.0608  0.1484 -0.5533
 4592TIP3    H140699   7.594   1.597   1.250 -4.2964  0.2814 -0.1895
 4592TIP3    H240700   7.654   1.727   1.202 -0.2596 -0.5687  2.1066
 4593TIP3   OH240701   5.537   6.302   6.190 -0.1110 -0.4670  0.3730
 4593TIP3    H140702   5.533   6.369   6.121 -1.0894  0.2207  1.0636
 4593TIP3    H240703   5.522   6.351   6.271  0.9323 -1.2799  1.0769
 4594TIP3   OH240704   3.165   2.407   0.499  0.5061 -0.2209  0.1118
 4594TIP3    H140705   3.260   2.421   0.500  0.5602 -0.2133 -1.7585
 4594TIP3    H240706   3.151   2.342   0.431 -0.9714  0.9717 -0.7865
 4595TIP3   OH240707   0.366   1.224   5.624 -0.0433 -0.7159  0.0948
 4595TIP3    H140708   0.280   1.251   5.658  0.0923 -1.4970  1.1298
 4595TIP3    H240709   0.354   1.218   5.530 -0.5146  1.3288 -0.0247
 4596TIP3   OH240710   6.291   3.732   6.277  0.0310  0.1877  0.3700
 4596TIP3    H140711   6.339   3.653   6.298  0.7593  0.3942 -0.4499
 4596TIP3    H240712   6.359   3.799   6.265 -0.2894  0.1353 -2.3384
 4597TIP3   OH240713   1.781   5.836   0.620  1.1331  0.0396  0.0022
 4597TIP3    H140714   1.842   5.785   0.567 -0.1040  0.2468 -1.7186
 4597TIP3    H240715   1.763   5.781   0.696  1.4948 -1.1361 -0.7411
 4598TIP3   OH240716   1.673   3.233   5.750 -0.2337 -0.1637 -0.4353
 4598TIP3    H140717   1.715   3.218   5.666 -1.5371  0.4030 -1.2172
 4598TIP3    H240718   1.599   3.173   5.751 -0.8724  0.6074 -0.1874
 4599TIP3   OH240719   3.911   6.802   1.226  0.1903  0.4713 -0.2757
 4599TIP3    H140720   3.880   6.718   1.190  1.3154 -0.8516  1.6630
 4599TIP3    H240721   3.837   6.836   1.276  0.8017 -1.2532  1.9592
 4600TIP3   OH240722   3.672   6.015   5.645 -0.3752  0.1486  0.5994
 4600TIP3    H140723   3.639   5.927   5.667 -1.1713  0.5846  1.2399
 4600TIP3    H240724   3.593   6.067   5.633  0.0321  0.2568 -2.2023
 4601TIP3   OH240725   3.383   0.467   6.067 -0.3607 -0.2804  0.1370
 4601TIP3    H140726   3.415   0.406   6.134  0.0049  0.5651  0.7423
 4601TIP3    H240727   3.436   0.545   6.078 -1.7336  0.6677  0.2717
 4602TIP3   OH240728   2.476   1.435   0.196  0.4202  0.2255 -0.1096
 4602TIP3    H140729   2.557   1.479   0.223 -0.0910  0.4979  1.0737
 4602TIP3    H240730   2.408   1.502   0.207 -0.1970 -0.4945  0.5451
 4603TIP3   OH240731   5.430   4.354   6.031 -0.0771 -0.4498  0.1138
 4603TIP3    H140732   5.453   4.339   5.940  0.6086  2.4397 -0.3054
 4603TIP3    H240733   5.334   4.357   6.032 -0.0669  0.5895 -0.7580
 4604TIP3   OH240734   4.382   4.401   1.414  0.0943  0.3985 -0.3136
 4604TIP3    H140735   4.393   4.345   1.491 -0.6773 -0.3646 -0.7383
 4604TIP3    H240736   4.294   4.436   1.423 -0.2137 -0.1363 -1.1170
 4605TIP3   OH240737   4.341   4.239   0.805  0.3670  0.2200 -0.5949
 4605TIP3    H140738   4.284   4.163   0.818 -0.4355  0.8583 -0.2772
 4605TIP3    H240739   4.402   4.237   0.879 -0.2188  0.3668 -0.1014
 4606TIP3   OH240740   4.243   1.811   1.402 -0.0597  0.3584 -0.1560
 4606TIP3    H140741   4.309   1.762   1.450 -1.2765  0.9053  2.2305
 4606TIP3    H240742   4.167   1.754   1.401 -0.4892  0.9267 -0.1778
 4607TIP3   OH240743   4.679   5.688   6.215  0.4817 -0.2121  0.0548
 4607TIP3    H140744   4.715   5.748   6.281 -0.3569  0.5018 -0.1317
 4607TIP3    H240745   4.756   5.640   6.183  1.8495  3.1989 -2.3763
 4608TIP3   OH240746   5.417   4.234   5.535  0.5048  0.1181  0.2271
 4608TIP3    H140747   5.404   4.325   5.509 -2.5984 -0.6679 -1.4914
 4608TIP3    H240748   5.445   4.189   5.455 -0.4701 -0.8284  0.3899
 4609TIP3   OH240749   3.788   1.280   1.456  0.0810 -0.1076  0.1927
 4609TIP3    H140750   3.845   1.310   1.527  0.0387  0.9296 -0.2111
 4609TIP3    H240751   3.702   1.268   1.498  0.0113  0.6816  0.2771
 4610TIP3   OH240752   2.059   0.556   1.062 -0.0760  0.5839  0.2855
 4610TIP3    H140753   2.086   0.641   1.027 -2.7519  1.1644 -0.6553
 4610TIP3    H240754   2.073   0.562   1.156 -1.1742  2.5066  0.3656
 4611TIP3   OH240755   6.311   7.143   6.163 -0.2016 -0.4074  0.7014
 4611TIP3    H140756   6.216   7.137   6.173 -0.5569  1.8716 -0.6126
 4611TIP3    H240757   6.338   7.201   6.234 -0.2890  1.4841 -0.7413
 4612TIP3   OH240758   1.803   0.204   0.664  0.6006  0.0880  0.1461
 4612TIP3    H140759   1.738   0.136   0.646  0.0703  1.0259 -1.8855
 4612TIP3    H240760   1.887   0.158   0.663  0.0963 -0.9149  1.3843
 4613TIP3   OH240761   2.209   4.453   1.121 -0.0878 -0.3995  0.4690
 4613TIP3    H140762   2.194   4.548   1.118 -0.5253 -0.4968 -1.4861
 4613TIP3    H240763   2.304   4.444   1.124 -0.0570  0.0877  1.5794
 4614TIP3   OH240764   5.194   3.153   0.099 -0.3439 -0.1256  0.4893
 4614TIP3    H140765   5.121   3.207   0.131 -0.4084 -0.3964  0.8053
 4614TIP3    H240766   5.190   3.074   0.153  0.1144 -0.1891  0.4292
 4615TIP3   OH240767   8.422   0.154   0.736  0.1068 -0.0564  0.1807
 4615TIP3    H140768   8.387   0.236   0.773 -0.3954  0.0705 -0.5531
 4615TIP3    H240769   8.516   0.159   0.753 -0.1217 -0.1178  1.6394
 4616TIP3   OH240770   0.894   6.288   0.461 -0.0321  0.5931 -0.3510
 4616TIP3    H140771   0.866   6.218   0.402  0.4972  2.5235 -3.0964
 4616TIP3    H240772   0.933   6.243   0.536 -0.4962 -2.0169 -1.5915
 4617TIP3   OH240773   8.521   3.644   0.146  0.1219 -0.2680 -0.1822
 4617TIP3    H140774   8.485   3.618   0.062  0.1235  1.5172 -0.7699
 4617TIP3    H240775   8.530   3.562   0.195 -0.3365 -1.2727 -1.7249
 4618TIP3   OH240776   2.965   6.401   6.968  0.1501 -0.2426 -0.3401
 4618TIP3    H140777   3.055   6.406   6.998 -0.1534  1.1600  0.4075
 4618TIP3    H240778   2.971   6.356   6.883  1.3646 -1.4405  0.3424
 4619TIP3   OH240779   6.606   3.098   0.273 -0.9354  0.2669  0.1423
 4619TIP3    H140780   6.604   3.166   0.341  0.4613  3.2593 -2.5939
 4619TIP3    H240781   6.690   3.055   0.285 -0.7458  0.6928  0.3880
 4620TIP3   OH240782   0.611   8.451   1.244 -0.0107  0.5923 -0.5069
 4620TIP3    H140783   0.523   8.474   1.274 -1.8621 -2.9162 -2.5360
 4620TIP3    H240784   0.612   8.478   1.152  1.1047  0.7138 -0.4678
 4621TIP3   OH240785   7.129   8.389   0.201 -0.2736  0.3069 -1.1836
 4621TIP3    H140786   7.073   8.381   0.277  0.2245  0.8723 -0.7484
 4621TIP3    H240787   7.106   8.473   0.162 -0.2469  0.2021 -1.4323
 4622TIP3   OH240788   4.182   3.848   6.127 -0.3472  0.4632 -0.2345
 4622TIP3    H140789   4.257   3.906   6.126  0.1836 -0.2076 -0.2763
 4622TIP3    H240790   4.110   3.901   6.160  0.1370  1.1200 -0.2295
 4623TIP3   OH240791   7.244   3.858   0.168 -0.2057  0.3387 -0.2211
 4623TIP3    H140792   7.189   3.786   0.199  0.6927  0.5525  2.0028
 4623TIP3    H240793   7.318   3.859   0.228  0.9215  1.7231 -1.5780
 4624TIP3   OH240794   5.660   3.914   1.608  0.2312  0.0007  0.1329
 4624TIP3    H140795   5.590   3.893   1.546  0.6030  0.3346 -0.4048
 4624TIP3    H240796   5.634   3.998   1.647 -0.3575 -0.5441  0.9726
 4625TIP3   OH240797   3.042   0.198   1.153 -0.2653 -0.3089  0.1321
 4625TIP3    H140798   3.129   0.238   1.157  0.2332 -1.3580  0.0684
 4625TIP3    H240799   3.025   0.188   1.060 -0.9642  0.9322  0.1021
 4626TIP3   OH240800   2.891   4.676   1.303  0.0261  0.4635  0.1969
 4626TIP3    H140801   2.877   4.582   1.289  2.7038  0.0218 -0.0496
 4626TIP3    H240802   2.976   4.681   1.347 -0.3451  2.7575  0.7521
 4627TIP3   OH240803   3.303   1.053   0.267  0.2376  0.3444  0.0693
 4627TIP3    H140804   3.301   0.976   0.211 -1.4602  1.4768 -1.5550
 4627TIP3    H240805   3.237   1.035   0.334  0.7235 -0.1101  0.4329
 4628TIP3   OH240806   0.401   4.797   0.395 -0.0873 -0.2702  0.4736
 4628TIP3    H140807   0.390   4.794   0.490 -0.7921  0.7442  0.4404
 4628TIP3    H240808   0.487   4.759   0.380  0.7212  0.9856  1.6611
 4629TIP3   OH240809   6.430   4.149   0.604  0.8847 -0.1115 -0.2189
 4629TIP3    H140810   6.403   4.199   0.681  0.9074 -1.4947  0.7162
 4629TIP3    H240811   6.465   4.067   0.639  0.2855 -1.0507 -1.7218
 4630TIP3   OH240812   2.227   1.903   6.790 -0.4382  0.3877 -0.1371
 4630TIP3    H140813   2.151   1.924   6.844 -1.1141  0.3567 -1.0575
 4630TIP3    H240814   2.198   1.917   6.700  0.6481  0.3840 -0.5090
 4631TIP3   OH240815   0.063   6.025   0.828 -0.5567 -0.2461 -1.2917
 4631TIP3    H140816   0.080   5.981   0.745 -2.1159 -0.0437 -1.7522
 4631TIP3    H240817   0.041   5.955   0.888 -0.1727 -0.3302 -1.2478
 4632TIP3   OH240818   3.271   7.221   0.477  0.2924  0.3468  0.1014
 4632TIP3    H140819   3.269   7.130   0.507 -2.3134  0.8038  1.6704
 4632TIP3    H240820   3.294   7.216   0.384 -2.1848 -2.1874 -0.5099
 4633TIP3   OH240821   5.361   1.973   1.106 -0.6330  0.1642  0.1277
 4633TIP3    H140822   5.398   2.003   1.022 -2.9629 -0.4020 -1.1908
 4633TIP3    H240823   5.406   2.025   1.172 -1.0146  3.0550 -1.7210
 4634TIP3   OH240824   1.047   3.425   6.090  0.2489 -0.5426  0.0681
 4634TIP3    H140825   1.042   3.330   6.082  1.2849 -0.7510  1.5336
 4634TIP3    H240826   0.991   3.458   6.019 -0.0826 -2.2251 -0.4990
 4635TIP3   OH240827   1.103   6.892   0.364  0.0400 -0.1301 -0.4280
 4635TIP3    H140828   1.164   6.937   0.423 -1.7413  2.8008 -0.5745
 4635TIP3    H240829   1.055   6.832   0.420 -0.8279  1.7633  0.9886
 4636TIP3   OH240830   1.802   4.824   6.067 -0.0757 -0.4573 -0.0858
 4636TIP3    H140831   1.730   4.785   6.116 -0.4531 -1.5760 -1.4486
 4636TIP3    H240832   1.871   4.838   6.132 -1.3652  0.2863  1.1693
 4637TIP3   OH240833   0.030   0.684   0.928 -0.1541  0.1044  0.0019
 4637TIP3    H140834   0.091   0.754   0.902 -0.9825  0.5075 -0.9255
 4637TIP3    H240835   8.504   0.727   0.987 -0.2009 -0.0300  0.0494
 4638TIP3   OH240836   1.719   0.415   6.093 -0.1233 -0.4853 -0.6309
 4638TIP3    H140837   1.687   0.506   6.098 -1.5341 -0.9929  0.0448
 4638TIP3    H240838   1.786   0.410   6.162 -0.6676 -0.1828 -0.0658
 4639TIP3   OH240839   1.890   5.236   1.802 -0.0764 -0.7672 -0.0215
 4639TIP3    H140840   1.931   5.258   1.886  0.1632  0.0070 -0.3286
 4639TIP3    H240841   1.798   5.260   1.814  0.0396 -0.2503 -0.1071
 4640TIP3   OH240842   5.022   3.603   5.588  0.0500  0.3349  0.1840
 4640TIP3    H140843   5.006   3.589   5.495 -1.1994  0.3275  0.3879
 4640TIP3    H240844   4.952   3.662   5.616  0.4602  0.4041  1.1049
 4641TIP3   OH240845   2.300   8.356   1.166  0.4388 -0.0181  0.6071
 4641TIP3    H140846   2.370   8.395   1.115  1.1984 -1.8000  0.2270
 4641TIP3    H240847   2.335   8.351   1.255  0.5212 -0.2981  0.5567
 4642TIP3   OH240848   8.062   7.081   0.787 -0.0515 -0.5765 -0.1831
 4642TIP3    H140849   8.025   7.024   0.854  0.5705 -0.5577  0.1846
 4642TIP3    H240850   8.034   7.169   0.813 -3.4365 -0.8437 -2.2777
 4643TIP3   OH240851   0.526   8.484   6.242  0.6086  0.3046  0.2035
 4643TIP3    H140852   0.587   8.534   6.188 -0.8531  1.1864 -0.7196
 4643TIP3    H240853   0.494   8.414   6.185 -1.5354  1.7040 -0.4518
 4644TIP3   OH240854   2.338   5.393   6.192  0.1982 -0.9200  0.1345
 4644TIP3    H140855   2.344   5.305   6.156  0.8322 -0.3228 -1.2542
 4644TIP3    H240856   2.410   5.441   6.152 -0.1361  0.2409  0.8728
 4645TIP3   OH240857   8.476   6.327   1.596  0.7767  0.2125  0.0139
 4645TIP3    H140858   8.387   6.329   1.631  0.8192  0.3275  0.1117
 4645TIP3    H240859   8.469   6.273   1.517  1.0242 -1.6145  1.1768
 4646TIP3   OH240860   6.384   7.209   1.747 -0.0841 -0.2284 -0.2522
 4646TIP3    H140861   6.454   7.145   1.763 -0.0945 -0.5078 -1.2672
 4646TIP3    H240862   6.423   7.293   1.771  0.5669 -0.3994 -0.6746
 4647TIP3   OH240863   4.837   7.561   6.837  0.1719 -0.2250  0.2095
 4647TIP3    H140864   4.919   7.568   6.886 -0.3527 -0.5491  1.1477
 4647TIP3    H240865   4.824   7.467   6.825 -1.0197 -0.2940  1.7431
 4648TIP3   OH240866   6.960   2.516   1.368 -0.0096 -0.1424  0.1665
 4648TIP3    H140867   7.025   2.456   1.330 -0.4433 -1.0945  0.8845
 4648TIP3    H240868   6.905   2.460   1.422 -2.4490  0.3231 -1.6581
 4649TIP3   OH240869   1.596   6.885   1.316  0.1131 -0.3498 -0.6531
 4649TIP3    H140870   1.627   6.865   1.404  2.8132 -1.1422 -1.6755
 4649TIP3    H240871   1.619   6.978   1.304 -1.2381  0.0705 -0.2016
 4650TIP3   OH240872   4.646   5.466   5.870  0.8270  0.3374  0.4233
 4650TIP3    H140873   4.710   5.413   5.824 -0.2129 -1.1988  0.6913
 4650TIP3    H240874   4.647   5.550   5.823  2.4810  0.1177 -0.0192
 4651TIP3   OH240875   3.994   7.316   6.669  0.7449 -0.2688 -0.1341
 4651TIP3    H140876   3.940   7.344   6.595 -0.2061 -0.4489  0.4832
 4651TIP3    H240877   3.960   7.365   6.744  2.0078  0.2762  0.1170
 4652TIP3   OH240878   5.861   4.421   1.929 -0.0172 -0.1469 -0.4392
 4652TIP3    H140879   5.820   4.471   2.000  0.1001  1.3551 -1.3733
 4652TIP3    H240880   5.792   4.361   1.900  0.1094 -1.1608  1.2616
 4653TIP3   OH240881   2.171   4.939   0.185 -0.3079 -0.1842  0.2093
 4653TIP3    H140882   2.121   4.858   0.182  1.0707 -1.0479 -0.4117
 4653TIP3    H240883   2.160   4.976   0.097  1.7398 -1.4188 -0.6216
 4654TIP3   OH240884   5.337   4.186   6.695 -0.2236 -0.1306 -0.1849
 4654TIP3    H140885   5.296   4.259   6.647  0.6202 -0.1281 -0.9380
 4654TIP3    H240886   5.294   4.108   6.661  0.2940 -0.1198 -0.9011
 4655TIP3   OH240887   0.184   7.024   5.751  0.3032  0.1457  0.1924
 4655TIP3    H140888   0.191   7.094   5.816 -1.5913  0.1216  0.4693
 4655TIP3    H240889   0.095   6.992   5.760  0.6947 -1.3470 -0.9353
 4656TIP3   OH240890   6.854   4.036   5.978 -0.0500  0.0006 -0.4450
 4656TIP3    H140891   6.790   4.100   6.008 -0.2482  0.0360 -0.9205
 4656TIP3    H240892   6.935   4.058   6.023 -0.6021 -0.6277  0.8899
 4657TIP3   OH240893   0.786   8.235   6.026 -0.4608  0.2220  0.6883
 4657TIP3    H140894   0.834   8.279   6.096  0.5209  1.2260 -0.5686
 4657TIP3    H240895   0.848   8.172   5.989 -0.6504  0.3432  0.1409
 4658TIP3   OH240896   5.110   4.439   5.267 -0.0035  0.2221 -0.1446
 4658TIP3    H140897   5.076   4.427   5.179 -0.7527 -1.7589  0.3493
 4658TIP3    H240898   5.075   4.364   5.316  1.0246  0.8508  1.6385
 4659TIP3   OH240899   4.471   7.593   0.996 -0.2804 -0.3778  0.3366
 4659TIP3    H140900   4.498   7.660   1.058 -3.8076  0.9459  0.6689
 4659TIP3    H240901   4.470   7.512   1.047 -0.8375  0.2662  1.3834
 4660TIP3   OH240902   0.082   3.266   1.432  0.2831 -0.0039  0.1933
 4660TIP3    H140903   0.155   3.206   1.450  0.2429  0.0957  0.7209
 4660TIP3    H240904   0.004   3.211   1.442  0.2645  0.0169  0.1616
 4661TIP3   OH240905   6.284   1.898   6.424 -0.1497 -0.2368  0.1891
 4661TIP3    H140906   6.333   1.975   6.394  1.2844 -1.0211  0.4319
 4661TIP3    H240907   6.351   1.834   6.447 -1.3065 -1.6256 -0.1410
 4662TIP3   OH240908   7.972   5.028   6.449 -0.0712 -0.1034 -0.1636
 4662TIP3    H140909   7.939   5.118   6.449  0.6528  0.2099 -1.9476
 4662TIP3    H240910   8.067   5.037   6.438  0.0530 -1.0707  0.0180
 4663TIP3   OH240911   2.237   4.093   6.388 -0.1437  0.1602  0.0316
 4663TIP3    H140912   2.167   4.147   6.350  1.2928  1.6157 -0.6756
 4663TIP3    H240913   2.270   4.145   6.461  0.9566  0.0456 -0.3624
 4664TIP3   OH240914   8.000   2.313   0.439 -0.3124  0.1854 -0.0938
 4664TIP3    H140915   7.906   2.326   0.450 -0.0651  2.2418 -0.0170
 4664TIP3    H240916   8.035   2.401   0.424  1.7115 -0.4271  0.6718
 4665TIP3   OH240917   1.619   4.700   1.391 -0.3718 -0.1960 -0.4313
 4665TIP3    H140918   1.655   4.768   1.334  0.8172 -0.7280 -0.3473
 4665TIP3    H240919   1.577   4.748   1.462  0.0521  0.4569 -0.6072
 4666TIP3   OH240920   7.186   7.790   0.437 -0.2306 -0.4993 -0.0660
 4666TIP3    H140921   7.152   7.701   0.440 -4.0970  0.6769 -1.5972
 4666TIP3    H240922   7.184   7.813   0.344  1.1911  1.0458  0.2394
 4667TIP3   OH240923   6.917   7.110   5.942  0.1621  0.1873  0.8655
 4667TIP3    H140924   6.833   7.153   5.926  1.1077  2.0767  0.6505
 4667TIP3    H240925   6.904   7.019   5.914 -2.1672  0.0788  2.0672
 4668TIP3   OH240926   1.383   2.048   0.513  0.1794  0.1376 -0.5100
 4668TIP3    H140927   1.326   1.996   0.457  1.0175 -1.9014  0.4053
 4668TIP3    H240928   1.357   2.024   0.602  1.5273  0.2148 -0.0718
 4669TIP3   OH240929   7.195   0.888   0.947  0.1644 -0.1872  0.6728
 4669TIP3    H140930   7.225   0.849   1.029  2.7020 -0.9391 -0.5023
 4669TIP3    H240931   7.203   0.817   0.883 -0.2558  0.8186 -0.5190
 4670TIP3   OH240932   2.790   7.183   0.070 -0.3366 -0.3408  0.2122
 4670TIP3    H140933   2.698   7.192   0.096  0.1010 -0.9906  2.1124
 4670TIP3    H240934   2.796   7.093   0.036 -0.1841 -0.7147  1.1867
 4671TIP3   OH240935   5.290   7.401   0.375 -0.8544  0.4601 -0.8520
 4671TIP3    H140936   5.377   7.415   0.337 -0.4828  0.7463  0.0767
 4671TIP3    H240937   5.235   7.378   0.300  0.2585 -0.8651 -1.3194
 4672TIP3   OH240938   7.030   1.946   0.564  0.2102  0.1778  0.3848
 4672TIP3    H140939   6.980   1.886   0.621  1.1625  1.0417  2.2222
 4672TIP3    H240940   7.115   1.903   0.555 -0.6073 -1.0747 -2.3752
 4673TIP3   OH240941   6.791   4.053   5.650  0.4054  0.4513  0.8283
 4673TIP3    H140942   6.794   4.071   5.557  1.2811  0.5704  0.8719
 4673TIP3    H240943   6.763   4.135   5.690  0.2067  0.4516  0.6884
 4674TIP3   OH240944   7.775   0.038   5.041 -0.3582  0.4053 -0.1066
 4674TIP3    H140945   7.848   0.011   4.986 -0.2254  0.7068 -0.0817
 4674TIP3    H240946   7.698   0.030   4.985 -0.4674 -0.9986  0.2024
 4675TIP3   OH240947   2.278   3.900   6.623 -0.1452  0.5320 -0.3811
 4675TIP3    H140948   2.343   3.845   6.667 -0.0337 -1.1188 -2.4746
 4675TIP3    H240949   2.199   3.848   6.622 -0.4930  1.0581 -1.0149
 4676TIP3   OH240950   7.758   6.225   4.867  0.0461  0.2143 -0.2976
 4676TIP3    H140951   7.767   6.318   4.886 -0.0257  0.4418 -1.3294
 4676TIP3    H240952   7.828   6.206   4.805  2.0316 -1.1293  2.1630
 4677TIP3   OH240953   0.271   2.376   1.131 -0.3228 -0.0752  0.0968
 4677TIP3    H140954   0.350   2.332   1.164  0.2971  0.8398 -0.1188
 4677TIP3    H240955   0.208   2.305   1.119 -0.2591 -0.5878  2.2849
 4678TIP3   OH240956   3.115   5.748   5.855 -0.0848  0.0007 -0.3127
 4678TIP3    H140957   3.116   5.840   5.880 -1.1972  0.0763 -0.4981
 4678TIP3    H240958   3.023   5.722   5.861 -0.2465 -0.3296 -2.9819
 4679TIP3   OH240959   3.651   0.396   6.330 -0.3425  0.7193 -0.1218
 4679TIP3    H140960   3.671   0.380   6.238 -0.1088 -1.9042  0.3212
 4679TIP3    H240961   3.563   0.361   6.342  0.3073 -0.6290  1.0080
 4680TIP3   OH240962   2.625   5.675   6.887 -0.1918 -0.6525  0.7172
 4680TIP3    H140963   2.611   5.766   6.912 -1.5053 -0.2752 -1.1389
 4680TIP3    H240964   2.545   5.630   6.914 -1.0134 -0.5180 -1.3026
 4681TIP3   OH240965   4.720   2.499   1.149  0.2392 -0.3282 -0.7419
 4681TIP3    H140966   4.666   2.568   1.111 -0.3686  0.0724  0.7727
 4681TIP3    H240967   4.743   2.442   1.075 -2.2721 -0.5177 -1.4603
 4682TIP3   OH240968   0.477   2.004   5.442  0.0607 -0.4111  0.5070
 4682TIP3    H140969   0.391   2.038   5.467 -0.4194  0.2024 -1.7126
 4682TIP3    H240970   0.529   2.082   5.423  0.9107 -0.7992  1.1679
 4683TIP3   OH240971   6.946   4.143   6.616  0.2179 -0.0456 -0.0042
 4683TIP3    H140972   6.907   4.058   6.640 -2.5684  0.5103 -2.0118
 4683TIP3    H240973   6.942   4.195   6.696 -2.0095 -0.5077  0.2530
 4684TIP3   OH240974   7.923   3.306   0.161 -0.0528 -0.4031 -0.2345
 4684TIP3    H140975   7.932   3.357   0.080  1.6690  0.0203  0.1910
 4684TIP3    H240976   7.844   3.254   0.147 -1.5337  1.8713 -0.9729
 4685TIP3   OH240977   7.372   4.634   5.692 -0.2797 -0.0042  0.3539
 4685TIP3    H140978   7.437   4.703   5.706  1.0363 -1.3777  1.3540
 4685TIP3    H240979   7.368   4.624   5.597  0.9964  0.1125  0.2686
 4686TIP3   OH240980   0.230   8.330   0.810 -0.4456 -0.3290  0.0753
 4686TIP3    H140981   0.235   8.247   0.859  0.6671 -0.5006 -0.2910
 4686TIP3    H240982   0.210   8.303   0.720 -0.0445 -0.2169 -0.0516
 4687TIP3   OH240983   8.152   6.482   5.169  0.8137  0.2135 -0.1602
 4687TIP3    H140984   8.104   6.431   5.104  0.8441 -0.4571  0.3291
 4687TIP3    H240985   8.094   6.556   5.189  1.0879  0.7834 -1.4062
 4688TIP3   OH240986   3.505   3.451   0.941  1.1773  0.2724  0.0193
 4688TIP3    H140987   3.428   3.508   0.939  1.0713  0.2090  1.2817
 4688TIP3    H240988   3.566   3.490   0.879  0.9580  1.5396  0.5709
 4689TIP3   OH240989   0.673   8.487   5.847  0.2211  0.1983  0.2379
 4689TIP3    H140990   0.737   8.454   5.911  0.3920  0.9253  0.4479
 4689TIP3    H240991   0.692   8.437   5.767  1.2716  0.6266  0.2030
 4690TIP3   OH240992   6.173   5.782   6.840 -0.9505  0.0747 -0.6530
 4690TIP3    H140993   6.142   5.867   6.872  0.7010 -0.0602  1.5725
 4690TIP3    H240994   6.162   5.787   6.745 -3.2887  1.7429 -0.3890
 4691TIP3   OH240995   2.813   2.730   0.679  0.3873 -0.2187 -0.3094
 4691TIP3    H140996   2.861   2.651   0.704  0.6954  1.0669  3.8304
 4691TIP3    H240997   2.721   2.705   0.684  0.4372 -0.0579  2.4048
 4692TIP3   OH240998   5.436   3.082   6.967  0.4074  0.2330 -0.3331
 4692TIP3    H140999   5.349   3.067   7.005  0.6037 -0.9829 -0.3156
 4692TIP3    H241000   5.420   3.141   6.894 -0.2958  0.8082  0.2706
 4693TIP3   OH241001   0.990   2.632   0.589  0.4910  0.3567  0.2783
 4693TIP3    H141002   0.896   2.650   0.584  0.5075  1.9103  3.2560
 4693TIP3    H241003   1.032   2.714   0.566  1.1058  0.0027  0.1156
 4694TIP3   OH241004   5.109   2.122   5.901  0.3151  0.4878 -0.2393
 4694TIP3    H141005   5.199   2.096   5.880  0.7771  1.2918  0.6351
 4694TIP3    H241006   5.071   2.045   5.944  1.0697  0.6125  0.6911
 4695TIP3   OH241007   4.319   6.599   1.541  0.4623  0.4415 -0.1968
 4695TIP3    H141008   4.244   6.631   1.493  0.6496  1.6242  0.2725
 4695TIP3    H241009   4.380   6.673   1.544  0.8178  0.1324  1.0931
 4696TIP3   OH241010   3.851   3.940   1.039 -0.0655  0.4567 -0.4747
 4696TIP3    H141011   3.847   3.872   1.107 -3.0078  2.0608  1.1554
 4696TIP3    H241012   3.777   3.922   0.982  0.3499  1.0953 -1.2287
 4697TIP3   OH241013   6.660   4.224   6.317 -0.1332  0.2112  0.1403
 4697TIP3    H141014   6.577   4.191   6.351 -0.8702  1.2219 -0.5868
 4697TIP3    H241015   6.698   4.274   6.390 -0.7928  0.8075  0.0858
 4698TIP3   OH241016   7.100   4.554   0.947  0.5148  0.2357 -0.5720
 4698TIP3    H141017   7.114   4.493   0.874 -1.2443  0.7898 -1.4343
 4698TIP3    H241018   7.180   4.548   0.999  1.3998 -0.9509 -1.9848
 4699TIP3   OH241019   6.007   0.484   6.243  0.3329 -0.0474  0.3875
 4699TIP3    H141020   5.915   0.508   6.228  0.0902 -1.1475  0.0303
 4699TIP3    H241021   6.056   0.548   6.191 -0.2587  0.1372  0.0341
 4700TIP3   OH241022   8.484   3.257   1.176  0.6246  0.8264 -0.3500
 4700TIP3    H141023   0.027   3.308   1.199 -0.4060  2.3571 -0.0680
 4700TIP3    H241024   8.442   3.238   1.259 -0.6227  2.2762 -0.5909
 4701TIP3   OH241025   7.545   7.889   1.687  0.1017 -0.1143  0.0161
 4701TIP3    H141026   7.505   7.920   1.606  0.9360 -0.9081 -0.7146
 4701TIP3    H241027   7.486   7.821   1.719 -0.9268  1.0951  0.8137
 4702TIP3   OH241028   1.002   2.743   1.645  0.6840  0.2642  0.3922
 4702TIP3    H141029   0.954   2.694   1.578  1.6387  0.0719 -0.1581
 4702TIP3    H241030   1.081   2.774   1.601  1.5644 -0.2643  1.5514
 4703TIP3   OH241031   3.749   0.414   6.603 -0.4068 -0.6787  0.7941
 4703TIP3    H141032   3.688   0.486   6.620 -0.2917 -0.0673 -1.0929
 4703TIP3    H241033   3.736   0.393   6.511  2.6563 -0.0576  0.0970
 4704TIP3   OH241034   7.850   0.850   6.829  0.0398 -0.1571 -0.3303
 4704TIP3    H141035   7.849   0.754   6.837 -0.4766 -0.1896 -0.7495
 4704TIP3    H241036   7.787   0.880   6.894  0.4928 -0.0726  0.0788
 4705TIP3   OH241037   7.653   7.110   6.140  0.5317  0.0269  0.0771
 4705TIP3    H141038   7.728   7.169   6.130 -0.3930  1.3348  0.6067
 4705TIP3    H241039   7.639   7.074   6.052  0.5499  1.3318 -0.4801
 4706TIP3   OH241040   2.312   1.890   0.126  0.4777  0.6575  0.3551
 4706TIP3    H141041   2.355   1.957   0.072  1.2483  2.0204  2.5311
 4706TIP3    H241042   2.381   1.858   0.184 -0.6229  0.2936  1.5126
 4707TIP3   OH241043   0.669   5.100   4.944  0.3397 -0.3144  0.3331
 4707TIP3    H141044   0.642   5.107   5.036  1.4160  0.4879  0.6012
 4707TIP3    H241045   0.744   5.041   4.945  0.9318  0.4295  0.0959
 4708TIP3   OH241046   3.258   4.343   6.330 -0.7454 -0.4533  0.1946
 4708TIP3    H141047   3.258   4.276   6.262 -0.0831  0.1988 -0.4684
 4708TIP3    H241048   3.302   4.301   6.404  1.9723 -0.0143 -1.0437
 4709TIP3   OH241049   6.116   4.144   6.062  0.2951 -0.4396 -0.0923
 4709TIP3    H141050   6.094   4.091   5.986 -1.1367 -0.5740  0.3940
 4709TIP3    H241051   6.036   4.191   6.083  1.4364  1.7354 -0.3404
 4710TIP3   OH241052   3.026   3.093   4.872 -0.0019  0.0755  0.3973
 4710TIP3    H141053   3.112   3.133   4.878  0.3592 -0.7205  0.5718
 4710TIP3    H241054   3.033   3.030   4.800 -0.9647  1.2579 -0.8082
 4711TIP3   OH241055   1.539   6.028   6.548 -0.5720 -0.4666 -0.2386
 4711TIP3    H141056   1.572   6.117   6.532  0.2564 -0.8168 -0.5844
 4711TIP3    H241057   1.576   6.003   6.633  1.1318 -1.3052 -1.1600
 4712TIP3   OH241058   1.779   1.670   6.269  0.3728 -0.3987 -0.2986
 4712TIP3    H141059   1.848   1.735   6.277 -1.3064  1.8920 -2.6619
 4712TIP3    H241060   1.730   1.675   6.351 -0.2005  2.0513 -0.7026
 4713TIP3   OH241061   2.650   3.010   5.808 -0.0806  0.2726 -0.1691
 4713TIP3    H141062   2.690   2.999   5.894 -0.2283  0.0411 -0.1286
 4713TIP3    H241063   2.721   3.043   5.753 -0.0835  0.7944  0.1300
 4714TIP3   OH241064   3.966   3.515   0.870  0.4706 -0.0354 -0.0126
 4714TIP3    H141065   3.988   3.500   0.962  0.9930 -2.7361 -0.5202
 4714TIP3    H241066   3.925   3.434   0.841 -1.8751  1.5732 -1.6088
 4715TIP3   OH241067   2.601   4.350   5.516  0.3285 -0.1715 -0.0831
 4715TIP3    H141068   2.524   4.352   5.459  0.1561  0.0088  0.1556
 4715TIP3    H241069   2.588   4.422   5.577 -0.7472 -1.9013  1.8407
 4716TIP3   OH241070   5.779   3.396   0.410  0.2188 -0.2004  1.0586
 4716TIP3    H141071   5.688   3.421   0.392  0.2709 -0.0419  1.0196
 4716TIP3    H241072   5.831   3.450   0.350  0.2202 -1.9376 -0.6197
 4717TIP3   OH241073   0.104   1.408   6.297  0.5432 -0.3582  0.6704
 4717TIP3    H141074   0.147   1.493   6.299  1.5872 -0.8781  2.9311
 4717TIP3    H241075   0.011   1.427   6.311  0.9971  0.3479  3.1304
 4718TIP3   OH241076   6.222   2.148   5.737  0.4030  0.5371 -0.3313
 4718TIP3    H141077   6.231   2.110   5.650  0.8359  1.2954 -0.6203
 4718TIP3    H241078   6.129   2.139   5.757  0.5888 -1.3208 -0.0839
 4719TIP3   OH241079   1.466   5.033   1.146  0.5555  0.5163  1.0820
 4719TIP3    H141080   1.555   5.065   1.156  0.8246 -0.4679  1.9258
 4719TIP3    H241081   1.461   4.956   1.203 -0.9482  0.7848  1.3485
 4720TIP3   OH241082   4.907   0.707   0.011 -0.3538 -0.5249 -0.0634
 4720TIP3    H141083   4.865   0.622   0.021  0.9653 -0.9752  2.2741
 4720TIP3    H241084   4.874   0.759   0.085 -0.2475  0.6399 -0.7980
 4721TIP3   OH241085   7.518   2.318   1.516  0.5658 -1.2639 -0.2781
 4721TIP3    H141086   7.486   2.347   1.430 -0.9594 -1.1659  0.2846
 4721TIP3    H241087   7.443   2.270   1.553  0.2427  0.8889  2.0618
 4722TIP3   OH241088   1.423   7.864   1.679  0.1897  0.3658 -0.6269
 4722TIP3    H141089   1.491   7.797   1.690 -0.2505  0.1060  0.7947
 4722TIP3    H241090   1.471   7.943   1.654  1.0519  0.2091  0.4460
 4723TIP3   OH241091   7.432   3.830   7.006 -0.2479 -0.6342 -0.1277
 4723TIP3    H141092   7.352   3.856   7.050 -0.1054 -0.8498  0.2660
 4723TIP3    H241093   7.492   3.807   0.006  0.7880  1.2523 -0.3128
 4724TIP3   OH241094   1.701   0.160   6.885  0.6092  0.3589 -0.5430
 4724TIP3    H141095   1.710   0.096   6.956 -1.7011  1.8056  1.1579
 4724TIP3    H241096   1.784   0.208   6.886 -0.4296  2.4781  3.4773
 4725TIP3   OH241097   1.529   4.281   0.704 -0.8288 -0.4414 -0.1681
 4725TIP3    H141098   1.532   4.361   0.758  0.5295 -0.2523 -0.4923
 4725TIP3    H241099   1.549   4.210   0.765 -3.7259 -0.8163  0.5079
 4726TIP3   OH241100   0.917   1.821   6.773 -0.2849 -0.2676 -0.1369
 4726TIP3    H141101   0.890   1.870   6.695  1.6669 -0.5080 -1.0141
 4726TIP3    H241102   0.937   1.733   6.741  1.8865  0.0018  0.3216
 4727TIP3   OH241103   1.995   8.321   6.830  0.2429 -0.2283  0.7796
 4727TIP3    H141104   1.994   8.238   6.877 -1.0018 -0.5689  0.1801
 4727TIP3    H241105   1.922   8.315   6.768 -0.1902  1.4957  1.0646
 4728TIP3   OH241106   1.875   5.831   6.762 -0.5340 -0.2168  0.0284
 4728TIP3    H141107   1.971   5.826   6.756 -0.6355 -3.6251 -0.9714
 4728TIP3    H241108   1.846   5.828   6.671 -1.5961 -1.8888  0.3935
 4729TIP3   OH241109   4.822   8.319   5.057 -0.6957 -0.7914 -0.0278
 4729TIP3    H141110   4.879   8.243   5.043 -0.4886 -0.2749 -2.2245
 4729TIP3    H241111   4.805   8.354   4.970 -2.9771  0.1318  0.7131
 4730TIP3   OH241112   7.273   2.232   5.140 -0.0406 -0.2121 -0.2399
 4730TIP3    H141113   7.309   2.276   5.217  0.0911 -0.0503 -0.3903
 4730TIP3    H241114   7.203   2.176   5.174 -1.1662  1.1592 -0.1767
 4731TIP3   OH241115   6.014   0.256   0.866  0.0534  0.0388  0.2260
 4731TIP3    H141116   5.998   0.185   0.928  0.7821  0.7403  1.2458
 4731TIP3    H241117   6.081   0.222   0.807  0.2316 -0.2103  0.5695
 4732TIP3   OH241118   5.104   1.338   7.021 -0.5926  0.1226 -0.1256
 4732TIP3    H141119   5.066   1.370   0.031 -0.2253 -0.3104  0.2238
 4732TIP3    H241120   5.053   1.380   6.952 -0.0684  1.5143  0.3110
 4733TIP3   OH241121   4.866   7.294   6.837  0.5039  0.4952  0.1028
 4733TIP3    H141122   4.952   7.251   6.843  1.1082  1.7170  0.6795
 4733TIP3    H241123   4.803   7.223   6.845  1.4230 -0.1047  3.2641
 4734TIP3   OH241124   7.063   1.582   0.602 -0.4506  0.9665  0.0226
 4734TIP3    H141125   7.138   1.530   0.630 -3.0055 -2.0327  2.0183
 4734TIP3    H241126   7.057   1.566   0.508  1.1266  0.8939 -0.0885
 4735TIP3   OH241127   3.014   4.121   1.126 -0.1155  0.7118 -0.7990
 4735TIP3    H141128   3.053   4.096   1.210  0.0210 -0.4716 -1.1959
 4735TIP3    H241129   3.008   4.216   1.130  0.5302  0.7267  0.2751
 4736TIP3   OH241130   6.307   4.691   1.826  0.4753  0.7991  0.6031
 4736TIP3    H141131   6.239   4.657   1.884  1.4511 -0.8361  0.8562
 4736TIP3    H241132   6.287   4.655   1.740  0.6722  0.8059  0.5522
 4737TIP3   OH241133   7.839   8.419   5.571 -0.4327  0.1390 -0.2875
 4737TIP3    H141134   7.933   8.405   5.582 -0.9416 -3.6199  0.5256
 4737TIP3    H241135   7.826   8.421   5.477  0.4786  1.3202 -0.4171
 4738TIP3   OH241136   2.891   2.166   0.188 -0.2451  0.4515  0.1215
 4738TIP3    H141137   2.842   2.180   0.269 -1.6024 -0.1459 -0.5481
 4738TIP3    H241138   2.978   2.201   0.205 -0.9509  1.6908  1.3262
 4739TIP3   OH241139   1.504   3.493   1.346  0.1672 -0.4382  0.1592
 4739TIP3    H141140   1.514   3.583   1.378  0.2259 -1.0533  1.9410
 4739TIP3    H241141   1.412   3.487   1.319  0.5871  0.6609 -1.7312
 4740TIP3   OH241142   3.826   8.398   0.863  0.4671  0.6785  0.2033
 4740TIP3    H141143   3.882   8.364   0.794  2.6525  0.4062  1.9984
 4740TIP3    H241144   3.789   8.320   0.905 -0.5247  0.8308 -0.3432
 4741TIP3   OH241145   0.892   3.226   6.778 -0.6057  0.1562 -0.0518
 4741TIP3    H141146   0.959   3.221   6.710  2.8486  0.1407  3.0360
 4741TIP3    H241147   0.870   3.135   6.797 -0.8784  0.1285 -0.4858
 4742TIP3   OH241148   0.034   8.157   6.490 -0.3990 -0.0705  0.3407
 4742TIP3    H141149   8.520   8.096   6.434 -0.4822 -1.4432  1.8243
 4742TIP3    H241150   0.010   8.244   6.457 -0.4656 -0.7908 -1.7043
 4743TIP3   OH241151   5.442   0.981   0.485  0.2219 -0.6216 -0.1394
 4743TIP3    H141152   5.473   1.014   0.569 -0.9699  1.8099 -0.5420
 4743TIP3    H241153   5.402   0.896   0.505  0.3113 -0.2758  1.6760
 4744TIP3   OH241154   6.423   1.868   6.768 -0.2677  0.0316 -0.3746
 4744TIP3    H141155   6.492   1.889   6.831 -0.9714  0.1472  0.3626
 4744TIP3    H241156   6.471   1.850   6.687  0.5238  2.1660 -0.4487
 4745TIP3   OH241157   7.989   0.449   0.400 -0.4485  0.0709  0.1353
 4745TIP3    H141158   7.902   0.466   0.363 -0.3457  1.7655  0.5795
 4745TIP3    H241159   8.008   0.527   0.452  1.9498  0.4123 -1.1319
 4746TIP3   OH241160   6.990   2.746   5.110 -0.4327  0.2316 -0.2906
 4746TIP3    H141161   7.000   2.840   5.126  0.2982  0.8381 -3.5421
 4746TIP3    H241162   7.079   2.711   5.116 -0.3197  0.2638 -1.4495
 4747TIP3   OH241163   3.195   6.211   5.515  0.0995 -0.1237 -0.4056
 4747TIP3    H141164   3.213   6.264   5.437  0.4647 -1.0856 -1.0007
 4747TIP3    H241165   3.148   6.270   5.574  0.8656  0.9773 -0.8656
 4748TIP3   OH241166   1.941   7.067   1.861  0.0150  0.6170  0.3426
 4748TIP3    H141167   1.907   6.985   1.824  0.1562  1.3077 -1.3976
 4748TIP3    H241168   2.034   7.049   1.878  0.4461  0.8631 -1.5513
 4749TIP3   OH241169   7.057   7.228   6.931 -0.0670 -0.4892 -0.5513
 4749TIP3    H141170   7.060   7.236   7.026  3.6665  0.0689 -0.5526
 4749TIP3    H241171   7.146   7.249   6.903 -1.4616  1.3078 -4.3570
 4750TIP3   OH241172   6.933   2.133   5.940 -0.2248 -0.3729  0.1029
 4750TIP3    H141173   6.903   2.216   5.978  1.2760  0.7557 -1.0833
 4750TIP3    H241174   6.859   2.073   5.953 -1.1084  0.9506  1.5491
 4751TIP3   OH241175   6.874   2.430   6.688  0.2173 -0.4566  0.2924
 4751TIP3    H141176   6.881   2.366   6.617  2.5977 -0.1905  0.2146
 4751TIP3    H241177   6.923   2.391   6.760  0.0404  0.4268  0.9029
 4752TIP3   OH241178   8.154   1.951   6.856  0.0761  0.0544 -0.2510
 4752TIP3    H141179   8.242   1.977   6.826 -0.2017  0.3679 -0.8132
 4752TIP3    H241180   8.111   1.917   6.777  0.0434 -1.0819  0.2381
 4753TIP3   OH241181   2.449   1.399   4.499 -0.1037 -0.0761  0.0465
 4753TIP3    H141182   2.527   1.354   4.531  0.5308  0.6415 -0.4493
 4753TIP3    H241183   2.387   1.396   4.572  1.6359  2.3527  1.7742
 4754TIP3   OH241184   7.771   1.824   6.475 -0.1644 -0.1992  0.2810
 4754TIP3    H141185   7.836   1.767   6.517  0.9529 -0.0454 -1.1574
 4754TIP3    H241186   7.821   1.871   6.409 -1.5375  0.8022 -0.0713
 4755TIP3   OH241187   1.078   1.337   0.391 -0.1673  0.2174 -0.1927
 4755TIP3    H141188   1.141   1.271   0.420 -1.1540 -0.6127  0.0949
 4755TIP3    H241189   1.054   1.309   0.303 -1.5690 -0.5694  0.4141
 4756TIP3   OH241190   3.539   7.252   1.105 -0.1876  1.1954  0.5501
 4756TIP3    H141191   3.609   7.295   1.153  0.2186  1.5418 -0.3406
 4756TIP3    H241192   3.480   7.323   1.079 -0.1815  1.0653  0.1729
 4757TIP3   OH241193   8.395   4.782   5.621 -0.0049  0.1769 -0.0469
 4757TIP3    H141194   8.455   4.752   5.689 -2.0544  0.1789  1.8536
 4757TIP3    H241195   8.309   4.781   5.662 -1.1825  1.3509 -2.2869
 4758TIP3   OH241196   0.128   8.269   5.609 -0.3175 -0.1569 -0.3925
 4758TIP3    H141197   0.144   8.294   5.700  0.8902  1.9581 -1.1231
 4758TIP3    H241198   0.186   8.194   5.594  1.3139  0.9917 -0.0733
 4759TIP3   OH241199   1.706   2.471   5.172 -0.2790 -0.4949 -0.2866
 4759TIP3    H141200   1.773   2.539   5.181 -0.8271 -0.0035  0.1894
 4759TIP3    H241201   1.632   2.516   5.129 -0.7386 -0.7224  0.2581
 4760TIP3   OH241202   3.448   1.609   1.426  0.0228 -0.1707 -0.2279
 4760TIP3    H141203   3.366   1.561   1.434  0.8394 -2.0758 -2.2219
 4760TIP3    H241204   3.478   1.621   1.516 -1.0667 -1.9423  0.4089
 4761TIP3   OH241205   8.215   4.804   1.391  0.1058  0.2579  0.0662
 4761TIP3    H141206   8.154   4.838   1.457  1.4301  0.9777  0.9556
 4761TIP3    H241207   8.273   4.745   1.439  0.5702  0.1386 -0.6242
 4762TIP3   OH241208   5.755   6.532   5.998 -0.3954 -0.4269 -0.5088
 4762TIP3    H141209   5.663   6.512   5.982 -0.8786  0.8171  0.5428
 4762TIP3    H241210   5.780   6.591   5.927 -0.5218 -0.4671 -0.5857
 4763TIP3   OH241211   2.744   6.206   7.014  0.0838 -0.1729  0.2550
 4763TIP3    H141212   2.820   6.264   7.011  0.0698 -0.1426 -2.5369
 4763TIP3    H241213   2.775   6.128   7.060  2.8703 -1.3543 -3.1662
 4764TIP3   OH241214   4.469   2.142   5.548 -0.4320  0.1605  0.7493
 4764TIP3    H141215   4.563   2.154   5.535 -0.2395  1.9160  3.1360
 4764TIP3    H241216   4.431   2.149   5.461  1.7267 -2.1653 -0.5067
 4765TIP3   OH241217   1.448   5.433   5.483  0.3154 -0.4701  0.0720
 4765TIP3    H141218   1.541   5.433   5.459  0.6175  0.0830  1.1630
 4765TIP3    H241219   1.426   5.525   5.491 -0.0413 -0.6178  0.8492
 4766TIP3   OH241220   6.341   2.802   1.166 -0.4693 -0.1694 -0.1825
 4766TIP3    H141221   6.248   2.823   1.162 -0.5289 -0.3856  0.0248
 4766TIP3    H241222   6.376   2.827   1.080 -0.3170  1.7596  0.3899
 4767TIP3   OH241223   0.601   5.270   6.823  0.0217 -0.1276  0.6361
 4767TIP3    H141224   0.543   5.317   6.884  1.5637  2.1878  0.4243
 4767TIP3    H241225   0.689   5.286   6.857  0.7073 -1.4683 -0.4397
 4768TIP3   OH241226   2.004   5.023   1.698 -0.0747 -0.4025 -0.1693
 4768TIP3    H141227   2.082   5.062   1.660 -0.6547 -1.5269 -2.8010
 4768TIP3    H241228   1.949   5.098   1.721  0.2127  0.4262 -1.9477
 4769TIP3   OH241229   2.235   6.527   1.833 -0.1267 -0.2474  0.5566
 4769TIP3    H141230   2.316   6.515   1.785 -0.7176 -0.1167 -0.5085
 4769TIP3    H241231   2.227   6.448   1.887  0.7910 -0.1737  0.8118
 4770TIP3   OH241232   2.176   2.128   6.058  0.0007 -0.1739  0.1249
 4770TIP3    H141233   2.233   2.054   6.079 -0.3297 -0.4690  0.0066
 4770TIP3    H241234   2.087   2.096   6.079 -0.1831  0.0397 -0.3154
 4771TIP3   OH241235   1.912   1.905   5.997 -0.1669  0.3328 -0.0180
 4771TIP3    H141236   1.917   1.898   6.093 -0.4144  1.2001  0.0700
 4771TIP3    H241237   1.840   1.848   5.973 -0.9420  1.0824  0.4582
 4772TIP3   OH241238   2.612   5.362   1.020 -0.0922  0.4613  0.5191
 4772TIP3    H141239   2.539   5.326   0.970  0.7687  0.5778 -0.8715
 4772TIP3    H241240   2.578   5.445   1.054 -0.3807  0.9163 -0.7929
 4773TIP3   OH241241   7.612   0.137   0.528 -0.1456 -0.7545  0.1090
 4773TIP3    H141242   7.644   0.122   0.439  2.0542 -0.6155  0.7975
 4773TIP3    H241243   7.686   0.178   0.573 -2.2927  2.3634  1.1331
 4774TIP3   OH241244   6.261   0.826   6.880 -0.0532  0.0862 -0.0888
 4774TIP3    H141245   6.346   0.861   6.907 -0.4388  1.4601 -0.5667
 4774TIP3    H241246   6.204   0.903   6.876 -1.2895 -0.8018  0.0983
 4775TIP3   OH241247   6.659   0.191   0.827  0.6161  0.2416 -0.0814
 4775TIP3    H141248   6.573   0.232   0.815  0.7141  0.4319 -0.1428
 4775TIP3    H241249   6.696   0.234   0.904  0.9196  0.6214 -0.4279
 4776TIP3   OH241250   4.489   3.832   1.103  0.2324  0.0192 -0.7309
 4776TIP3    H141251   4.563   3.812   1.046  0.4845  0.4253 -0.5522
 4776TIP3    H241252   4.529   3.864   1.183 -0.0984 -1.0117 -0.1268
 4777TIP3   OH241253   6.747   4.476   6.474 -0.8658 -0.2719 -0.9865
 4777TIP3    H141254   6.776   4.557   6.513 -0.4152  0.3206 -2.4762
 4777TIP3    H241255   6.827   4.430   6.448 -1.1250 -0.9860 -0.5569
 4778TIP3   OH241256   3.937   4.276   5.512 -0.4720  0.1965 -0.9159
 4778TIP3    H141257   3.997   4.350   5.514 -0.0864 -0.1312 -0.1543
 4778TIP3    H241258   3.956   4.232   5.429  1.1265 -0.5227 -0.2099
 4779TIP3   OH241259   3.420   4.364   6.859  0.3799  0.0461  0.1847
 4779TIP3    H141260   3.406   4.398   6.948  3.0867 -1.3529  1.2667
 4779TIP3    H241261   3.514   4.342   6.857  0.0761 -1.3385 -2.5341
 4780TIP3   OH241262   7.094   6.243   5.931 -0.8439  0.7414  0.2572
 4780TIP3    H141263   7.158   6.172   5.931 -1.9370 -0.2739 -0.2334
 4780TIP3    H241264   7.128   6.307   5.869  0.7819  1.2630  1.6110
 4781TIP3   OH241265   6.121   2.823   5.782 -0.3376 -0.5288  0.0772
 4781TIP3    H141266   6.084   2.799   5.697 -1.0891  1.4020 -0.1806
 4781TIP3    H241267   6.047   2.858   5.832  0.6153  1.0233  0.4820
 4782TIP3   OH241268   3.476   5.559   5.566  0.7702  0.7848  0.6304
 4782TIP3    H141269   3.439   5.497   5.503  1.3212  0.6912  0.3973
 4782TIP3    H241270   3.508   5.503   5.637  0.5970  0.8566  0.7656
 4783TIP3   OH241271   7.044   0.593   6.319 -0.0115 -0.5103 -0.3461
 4783TIP3    H141272   7.015   0.656   6.386 -3.4310 -0.8235 -1.3561
 4783TIP3    H241273   7.056   0.511   6.367 -1.7426 -0.5698  0.0348
 4784TIP3   OH241274   7.825   7.122   1.470  0.5921  0.5001 -0.2665
 4784TIP3    H141275   7.794   7.044   1.517  0.7975  1.2434  1.1828
 4784TIP3    H241276   7.746   7.162   1.434  0.5154 -0.5052 -1.2515
 4785TIP3   OH241277   7.525   2.615   1.109 -0.0398  0.4733 -0.1414
 4785TIP3    H141278   7.448   2.562   1.129  0.4164 -0.1762 -0.1178
 4785TIP3    H241279   7.491   2.705   1.107 -0.4093  0.4438  2.0020
 4786TIP3   OH241280   5.742   6.885   0.693 -0.1053  0.5911  0.4123
 4786TIP3    H141281   5.784   6.905   0.609  1.7487 -2.2983  0.5568
 4786TIP3    H241282   5.656   6.849   0.669 -0.0762  0.8988 -0.1649
 4787TIP3   OH241283   6.441   5.203   1.745  0.1065 -0.5107 -0.0552
 4787TIP3    H141284   6.418   5.114   1.771 -0.0358  0.3738  3.2404
 4787TIP3    H241285   6.531   5.214   1.775  0.4024  0.2416 -1.1608
 4788TIP3   OH241286   1.291   3.480   0.424 -0.1427  0.2883  0.6894
 4788TIP3    H141287   1.252   3.561   0.457 -2.0973 -1.3706  2.8125
 4788TIP3    H241288   1.333   3.441   0.501 -0.5417 -1.3790  0.1139
 4789TIP3   OH241289   5.369   1.297   0.553  0.3898 -0.5400 -0.0958
 4789TIP3    H141290   5.304   1.260   0.494  1.2658 -2.1432 -0.1021
 4789TIP3    H241291   5.323   1.369   0.597 -1.1127 -1.0966 -0.7001
 4790TIP3   OH241292   1.466   2.799   5.529 -0.4444  0.6705 -0.1435
 4790TIP3    H141293   1.428   2.885   5.512 -0.7111  0.3775 -1.0881
 4790TIP3    H241294   1.399   2.737   5.499 -0.2800  0.1260  0.5768
 4791TIP3   OH241295   2.857   1.894   6.516  0.4041  0.2173  0.4755
 4791TIP3    H141296   2.847   1.825   6.450 -0.8758 -1.2227  2.0692
 4791TIP3    H241297   2.801   1.865   6.588  0.9077  2.2796  1.7523
 4792TIP3   OH241298   4.803   2.697   0.416  0.2553 -0.2317  0.1279
 4792TIP3    H141299   4.806   2.632   0.486 -1.0348 -1.0926 -0.5905
 4792TIP3    H241300   4.891   2.694   0.378  0.7895 -0.1731  1.3084
 4793TIP3   OH241301   0.123   2.946   0.069  0.0603  0.2653  0.3831
 4793TIP3    H141302   0.138   2.858   0.033  1.5128  1.0908 -1.1756
 4793TIP3    H241303   0.096   2.930   0.159 -1.8937 -1.8582 -0.4583
 4794TIP3   OH241304   7.460   7.241   0.235 -0.4668  0.2714 -0.3137
 4794TIP3    H141305   7.506   7.322   0.213  2.7122 -0.8834  1.3703
 4794TIP3    H241306   7.452   7.194   0.152  1.0563  0.7525 -0.7572
 4795TIP3   OH241307   1.430   1.922   1.226  0.0315  0.4617  0.3438
 4795TIP3    H141308   1.466   2.008   1.205 -0.2002  0.4192 -0.2474
 4795TIP3    H241309   1.349   1.942   1.274 -0.6196  0.6039 -0.7719
 4796TIP3   OH241310   0.111   0.303   6.242  0.5201  0.1327  0.1143
 4796TIP3    H141311   0.152   0.217   6.255  2.5857  1.3457  2.2569
 4796TIP3    H241312   0.115   0.317   6.147  3.0118 -0.8333  0.0084
 4797TIP3   OH241313   3.254   7.634   0.586 -0.1368 -0.3313 -0.9351
 4797TIP3    H141314   3.308   7.555   0.583  0.1514 -0.2601  0.9498
 4797TIP3    H241315   3.307   7.696   0.638 -2.6154 -0.8216  2.5350
 4798TIP3   OH241316   4.265   3.067   6.364  0.1849  0.0576 -0.2718
 4798TIP3    H141317   4.204   3.140   6.363 -0.7807 -0.7221 -0.8614
 4798TIP3    H241318   4.324   3.083   6.290  1.0772  1.0986  0.6333
 4799TIP3   OH241319   8.465   3.484   6.285 -0.3589  0.5783 -0.0008
 4799TIP3    H141320   8.517   3.493   6.365  2.0211 -1.0729 -1.2282
 4799TIP3    H241321   8.443   3.391   6.282 -2.4715  1.0456 -0.1332
 4800TIP3   OH241322   6.982   6.219   1.437 -0.3564 -0.1288  0.0940
 4800TIP3    H141323   6.979   6.223   1.533  0.3317 -1.8689  0.2412
 4800TIP3    H241324   6.917   6.281   1.408 -0.5142  0.5121  1.7002
 4801TIP3   OH241325   2.956   0.162   1.405  0.4662 -0.1094 -0.0059
 4801TIP3    H141326   2.903   0.237   1.431 -0.1554  0.3110 -2.3409
 4801TIP3    H241327   3.002   0.190   1.326  1.0381 -1.8334 -0.3403
 4802TIP3   OH241328   7.465   1.899   0.325  0.0995  0.2206  0.0227
 4802TIP3    H141329   7.560   1.892   0.315 -0.1579 -1.0946 -2.0865
 4802TIP3    H241330   7.449   1.992   0.344  1.7816  0.4621  0.3709
 4803TIP3   OH241331   3.781   1.723   5.380 -0.3780  0.1213  0.2597
 4803TIP3    H141332   3.722   1.785   5.338 -2.3526 -2.1196 -0.4996
 4803TIP3    H241333   3.762   1.639   5.338  2.1005 -1.0680  1.2847
 4804TIP3   OH241334   7.209   6.968   5.459  0.4709 -0.6086 -0.3567
 4804TIP3    H141335   7.273   7.036   5.438  0.2564 -0.1406  0.4850
 4804TIP3    H241336   7.208   6.912   5.381  0.9020  0.1467 -0.9203
 4805TIP3   OH241337   0.097   0.378   5.982 -0.2086 -0.1965 -0.3293
 4805TIP3    H141338   0.011   0.419   5.989  0.3482  0.6997  1.7698
 4805TIP3    H241339   0.145   0.435   5.921  0.0227  1.3965  1.2728
 4806TIP3   OH241340   2.591   6.835   1.072  0.2735  0.6427  0.0227
 4806TIP3    H141341   2.505   6.796   1.058  0.7726 -0.0829 -1.1557
 4806TIP3    H241342   2.644   6.763   1.107  1.2789  0.1111 -2.4329
 4807TIP3   OH241343   8.192   3.762   1.839 -0.1049  0.1501 -0.7262
 4807TIP3    H141344   8.244   3.681   1.841 -0.8485 -0.3347  0.7220
 4807TIP3    H241345   8.225   3.813   1.913 -1.8474 -0.3048  0.4210
 4808TIP3   OH241346   6.188   6.717   6.483 -0.4114 -0.5375  0.1960
 4808TIP3    H141347   6.157   6.668   6.407 -3.2687 -1.2753  1.7157
 4808TIP3    H241348   6.160   6.807   6.467  1.0520 -0.1925 -0.6211
 4809TIP3   OH241349   0.997   8.366   1.295  0.1302  0.2959 -0.2124
 4809TIP3    H141350   1.022   8.425   1.366 -1.0601  1.2762 -0.5736
 4809TIP3    H241351   1.080   8.334   1.260  0.7499  0.3091  1.1800
 4810TIP3   OH241352   6.502   5.921   1.971 -0.4150  0.2823  0.4595
 4810TIP3    H141353   6.517   5.835   1.932 -3.1612  0.3241 -0.8790
 4810TIP3    H241354   6.563   5.924   2.046  1.1986 -1.9443 -0.6541
 4811TIP3   OH241355   6.713   3.829   6.720  0.0260  0.2101 -0.5150
 4811TIP3    H141356   6.618   3.837   6.716 -0.0268 -0.2850 -0.3217
 4811TIP3    H241357   6.734   3.846   6.812  0.1416  0.4664 -0.5877
 4812TIP3   OH241358   0.567   1.777   5.327 -0.2196 -0.3187 -0.2092
 4812TIP3    H141359   0.533   1.855   5.371 -0.3295 -0.5355  0.0938
 4812TIP3    H241360   0.621   1.811   5.256  1.0924  0.0676  0.9273
 4813TIP3   OH241361   5.869   3.793   4.983  0.0162 -0.1826  0.0395
 4813TIP3    H141362   5.793   3.750   5.023  0.1008 -0.1947  0.1897
 4813TIP3    H241363   5.836   3.879   4.956  0.6851  1.0811  2.9160
 4814TIP3   OH241364   6.403   7.380   1.073 -0.1446  0.1990  0.0304
 4814TIP3    H141365   6.369   7.388   1.162  2.0403 -0.4065  0.9915
 4814TIP3    H241366   6.498   7.385   1.083  0.2100 -0.8389 -2.1643
 4815TIP3   OH241367   6.818   1.532   0.126  0.3564  0.2256  0.1130
 4815TIP3    H141368   6.868   1.578   0.059 -0.3866 -1.0627 -1.3800
 4815TIP3    H241369   6.814   1.441   0.095 -0.6435 -0.2465  1.5383
 4816TIP3   OH241370   3.928   3.937   1.344  0.0060 -0.1222 -0.1479
 4816TIP3    H141371   3.863   3.918   1.412  0.9278  0.5048  0.9499
 4816TIP3    H241372   3.952   3.851   1.309  0.5321 -0.6058  1.3102
 4817TIP3   OH241373   8.129   0.474   6.114 -0.3152  0.3434 -0.1455
 4817TIP3    H141374   8.129   0.552   6.169  0.7386  0.7133 -0.6508
 4817TIP3    H241375   8.207   0.482   6.059 -1.2882 -0.0480 -1.6602
 4818TIP3   OH241376   7.675   7.767   1.487  0.2678  0.1150 -0.0202
 4818TIP3    H141377   7.656   7.817   1.566 -0.5574  0.7392 -0.5891
 4818TIP3    H241378   7.723   7.690   1.517 -0.1099  0.3024  1.0895
 4819TIP3   OH241379   6.637   6.693   5.136 -0.2741  0.0195 -0.0293
 4819TIP3    H141380   6.603   6.778   5.109 -1.7305 -0.6880 -0.4911
 4819TIP3    H241381   6.563   6.648   5.176  0.6545 -0.7744  0.8542
 4820TIP3   OH241382   8.161   6.436   1.244 -0.1219 -0.5100 -0.3956
 4820TIP3    H141383   8.191   6.474   1.161  0.3737  0.1292  0.0701
 4820TIP3    H241384   8.075   6.474   1.258  1.5223  3.0143  1.5921
 4821TIP3   OH241385   2.211   3.168   6.319  0.5529 -0.4407 -0.0733
 4821TIP3    H141386   2.293   3.203   6.284  1.5561 -2.1916  0.4544
 4821TIP3    H241387   2.220   3.073   6.313 -1.7001 -0.6804 -0.5602
 4822TIP3   OH241388   4.237   7.201   6.809  0.3028 -0.7376 -0.1670
 4822TIP3    H141389   4.149   7.234   6.793 -0.6332 -2.8368  0.3703
 4822TIP3    H241390   4.258   7.148   6.732  0.1958 -1.9829  0.6256
 4823TIP3   OH241391   7.167   8.028   5.845 -0.2965 -0.4621  0.3519
 4823TIP3    H141392   7.228   8.011   5.916  0.3600 -1.0445 -0.3402
 4823TIP3    H241393   7.100   8.085   5.884  0.4651 -0.1469  1.2185
 4824TIP3   OH241394   0.497   2.265   1.245  0.0586  0.5861 -0.4964
 4824TIP3    H141395   0.543   2.288   1.325 -1.4192 -0.9527  0.8756
 4824TIP3    H241396   0.527   2.177   1.224  0.8327  1.1655 -1.9872
 4825TIP3   OH241397   0.097   0.450   0.380  0.3025 -0.8489 -0.3117
 4825TIP3    H141398   0.112   0.474   0.471  0.0159  0.6443 -0.6398
 4825TIP3    H241399   0.023   0.389   0.384 -0.1145 -0.3150  0.4129
 4826TIP3   OH241400   4.637   0.178   0.106  0.1811  0.7889 -0.3312
 4826TIP3    H141401   4.661   0.254   0.052 -0.8251  0.4657 -1.2677
 4826TIP3    H241402   4.547   0.195   0.132 -0.8164 -1.0483 -2.3439
 4827TIP3   OH241403   3.570   7.868   1.525  0.2791 -0.2971 -0.3462
 4827TIP3    H141404   3.519   7.891   1.603 -0.7733 -0.4570 -0.9821
 4827TIP3    H241405   3.593   7.953   1.487 -0.6574 -0.2268 -0.7849
 4828TIP3   OH241406   5.043   0.648   0.469  0.3971 -0.0969  0.9186
 4828TIP3    H141407   5.138   0.640   0.469  0.3751 -1.9764 -2.0820
 4828TIP3    H241408   5.012   0.557   0.463 -1.4166  0.5889 -1.4712
 4829TIP3   OH241409   6.628   1.552   0.890  0.7344  0.3588 -0.4216
 4829TIP3    H141410   6.715   1.545   0.929  0.1730 -3.0884  0.5888
 4829TIP3    H241411   6.626   1.481   0.825 -1.1590  0.6322 -0.6992
 4830TIP3   OH241412   5.333   0.171   5.680  0.2323  0.0164 -0.1714
 4830TIP3    H141413   5.389   0.234   5.633 -1.0110 -0.1061 -1.9103
 4830TIP3    H241414   5.381   0.088   5.675 -0.1681 -0.1398 -1.8463
 4831TIP3   OH241415   0.150   5.919   0.606  0.1133  0.0457  0.9058
 4831TIP3    H141416   0.156   5.834   0.563 -0.7486  0.7251 -0.6200
 4831TIP3    H241417   0.140   5.982   0.535  1.8354  1.5851  1.9142
 4832TIP3   OH241418   2.858   3.171   0.858 -0.2891  0.6853 -0.0710
 4832TIP3    H141419   2.826   3.141   0.773  0.3279 -0.9663  0.2328
 4832TIP3    H241420   2.798   3.131   0.921 -0.0341  0.9144  0.3197
 4833TIP3   OH241421   5.181   1.554   1.676 -0.3552  0.0327 -0.1732
 4833TIP3    H141422   5.233   1.592   1.747  1.7564 -2.1650 -0.4158
 4833TIP3    H241423   5.186   1.618   1.605  0.5516  0.6443  0.4215
 4834TIP3   OH241424   3.802   5.838   0.585 -0.9084  0.2740 -0.5525
 4834TIP3    H141425   3.736   5.865   0.649  0.6308  2.4663  0.2508
 4834TIP3    H241426   3.836   5.756   0.620  0.8993  2.0939  2.4245
 4835TIP3   OH241427   8.424   7.182   7.055 -0.4042  0.0630  0.1392
 4835TIP3    H141428   8.515   7.182   0.012 -0.5859 -1.1459  0.7759
 4835TIP3    H241429   8.377   7.135   0.052 -1.0276 -1.9939 -1.6027
 4836TIP3   OH241430   6.099   1.179   6.691  0.1107 -0.4415 -0.2564
 4836TIP3    H141431   6.027   1.221   6.736  0.6497 -0.6176  0.8039
 4836TIP3    H241432   6.174   1.189   6.750  1.1400  0.3636 -1.6361
 4837TIP3   OH241433   2.822   1.177   0.786  0.5842 -0.0938  0.7613
 4837TIP3    H141434   2.870   1.096   0.772  0.1119 -0.0411 -1.5959
 4837TIP3    H241435   2.733   1.149   0.808  0.3047 -0.2757 -0.4946
 4838TIP3   OH241436   1.049   0.766   0.029 -0.1184  1.0929  0.3489
 4838TIP3    H141437   0.969   0.813   0.003 -1.7153 -0.9630  1.2911
 4838TIP3    H241438   1.018   0.689   0.076  2.4524  0.1635  0.6946
 4839TIP3   OH241439   7.636   1.089   5.974 -0.2608 -0.3447 -0.7305
 4839TIP3    H141440   7.709   1.135   5.933 -0.0366 -1.9471 -2.2592
 4839TIP3    H241441   7.569   1.084   5.906 -1.3283  0.0384  0.2695
 4840TIP3   OH241442   2.901   6.883   1.071  0.7310  0.5297  0.1044
 4840TIP3    H141443   2.955   6.962   1.060  1.3068  0.1184 -0.0517
 4840TIP3    H241444   2.837   6.907   1.138  3.0805  0.0308  2.7224
 4841TIP3   OH241445   6.284   1.529   5.578 -0.1162 -0.5424  0.8591
 4841TIP3    H141446   6.260   1.498   5.491 -0.6500  0.0717  0.7838
 4841TIP3    H241447   6.379   1.523   5.581 -0.1048 -0.6614  0.2724
 4842TIP3   OH241448   1.400   6.264   0.273  0.1676  0.0280  0.7494
 4842TIP3    H141449   1.442   6.333   0.221  1.7625 -1.8528 -0.6237
 4842TIP3    H241450   1.315   6.300   0.297  0.2777  1.8603 -1.3137
 4843TIP3   OH241451   7.332   0.914   5.564 -0.2203  0.5087 -0.1880
 4843TIP3    H141452   7.343   0.821   5.545  1.2788  0.6764 -0.2291
 4843TIP3    H241453   7.281   0.948   5.490 -0.6083 -0.2280 -0.2655
 4844TIP3   OH241454   2.233   2.360   1.612 -0.4192 -0.0527 -0.1614
 4844TIP3    H141455   2.190   2.283   1.576  0.3114  0.0315 -1.2476
 4844TIP3    H241456   2.251   2.415   1.537 -1.8086  1.6732  0.6907
 4845TIP3   OH241457   4.087   6.135   0.775 -0.2583  0.6020 -0.3756
 4845TIP3    H141458   4.061   6.079   0.848  1.3089  0.0663 -0.1930
 4845TIP3    H241459   4.004   6.170   0.741 -1.0632  0.5266  1.3738
 4846TIP3   OH241460   2.871   8.395   0.408 -0.3620 -0.3346 -0.4259
 4846TIP3    H141461   2.779   8.411   0.427 -0.4451  0.6187 -1.5043
 4846TIP3    H241462   2.892   8.315   0.455 -1.2910  0.3139  1.1817
 4847TIP3   OH241463   3.228   0.954   5.794 -0.7116 -0.5270 -0.8005
 4847TIP3    H141464   3.273   1.003   5.863 -1.9661 -2.1425  1.2922
 4847TIP3    H241465   3.275   0.977   5.714  2.0428  0.0221  0.8300
 4848TIP3   OH241466   0.650   0.967   1.634  0.1336 -0.1722  0.5671
 4848TIP3    H141467   0.686   1.051   1.661 -1.9356  0.6883  0.8983
 4848TIP3    H241468   0.555   0.983   1.628 -0.0301 -1.5399 -2.6946
 4849TIP3   OH241469   5.812   6.593   6.274 -0.0104 -0.0030 -0.3835
 4849TIP3    H141470   5.806   6.504   6.309  1.4597  0.4644  1.1955
 4849TIP3    H241471   5.813   6.581   6.179  1.2437 -1.7902 -0.2052
 4850TIP3   OH241472   0.328   2.188   1.951 -0.6466  0.2761 -0.0581
 4850TIP3    H141473   0.270   2.250   1.905  1.5574  1.6405 -1.1495
 4850TIP3    H241474   0.356   2.235   2.029 -0.0671  0.0921 -0.1540
 4851TIP3   OH241475   8.288   1.519   6.683 -0.2990  0.2113  0.1942
 4851TIP3    H141476   8.235   1.467   6.744  0.3815  1.5157  1.9805
 4851TIP3    H241477   8.226   1.582   6.646 -0.2819  0.9196  1.3310
 4852TIP3   OH241478   6.265   4.043   0.107  0.5576 -0.0928  0.2621
 4852TIP3    H141479   6.294   4.078   0.023 -0.0538 -0.4816 -0.1228
 4852TIP3    H241480   6.187   3.992   0.085 -0.6695  1.2416  1.3059
 4853TIP3   OH241481   4.945   3.612   0.007 -0.2296  0.8739 -0.2156
 4853TIP3    H141482   5.011   3.596   7.012 -2.0500 -1.1541 -1.6831
 4853TIP3    H241483   4.991   3.600   0.091  1.4118  0.4103 -1.1480
 4854TIP3   OH241484   2.782   5.135   1.474 -0.5094  0.0107 -0.4781
 4854TIP3    H141485   2.796   5.074   1.402 -1.2963  1.7290 -2.1971
 4854TIP3    H241486   2.701   5.180   1.451 -0.1916  1.3811  0.9206
 4855TIP3   OH241487   4.121   7.057   6.309 -0.2319 -0.1605 -0.0075
 4855TIP3    H141488   4.125   7.144   6.349  1.4304  0.9379 -2.3760
 4855TIP3    H241489   4.042   7.017   6.347 -0.8748  2.2405  1.3642
 4856TIP3   OH241490   4.425   3.633   6.793 -0.1071 -0.2031 -0.1806
 4856TIP3    H141491   4.398   3.547   6.827  0.5253 -0.1752  0.4118
 4856TIP3    H241492   4.508   3.651   6.837  0.2768  0.2606 -1.0742
 4857TIP3   OH241493   2.421   0.720   1.434 -0.1013 -0.2156  0.6541
 4857TIP3    H141494   2.468   0.786   1.484 -1.8339  1.0867  0.6807
 4857TIP3    H241495   2.480   0.696   1.363  0.0235  2.5247 -0.2517
 4858TIP3   OH241496   7.023   4.782   5.949  0.3341 -0.3507  0.3158
 4858TIP3    H141497   7.010   4.741   5.864 -1.0097  0.7969 -0.0862
 4858TIP3    H241498   6.998   4.715   6.013  0.7219 -1.0062 -0.2202
 4859TIP3   OH241499   6.366   5.300   5.302 -0.2500 -0.2012  0.5560
 4859TIP3    H141500   6.309   5.275   5.374 -0.6060 -0.5586  0.1590
 4859TIP3    H241501   6.402   5.217   5.271  1.4045  0.1018  1.5387
 4860TIP3   OH241502   6.256   6.254   0.897 -0.3684 -0.6807 -0.1391
 4860TIP3    H141503   6.245   6.336   0.945 -0.8019 -0.2190 -0.9892
 4860TIP3    H241504   6.167   6.222   0.884 -0.2779 -0.6513 -0.8618
 4861TIP3   OH241505   5.935   0.766   1.625  0.3573  0.4963 -0.2577
 4861TIP3    H141506   5.862   0.825   1.645 -0.2365  0.3476 -1.8519
 4861TIP3    H241507   6.013   0.817   1.646 -0.1706  0.7209  1.3203
 4862TIP3   OH241508   7.825   0.192   0.781  0.7651 -0.1339  0.1064
 4862TIP3    H141509   7.907   0.143   0.787 -0.0771 -1.4519  1.2391
 4862TIP3    H241510   7.768   0.153   0.847 -0.6448  1.0358 -0.3659
 4863TIP3   OH241511   5.101   6.382   1.419  0.2162 -0.3158  0.3172
 4863TIP3    H141512   5.039   6.452   1.400  3.2837  2.9506  1.2061
 4863TIP3    H241513   5.060   6.332   1.490 -2.1346  0.4829 -0.3970
 4864TIP3   OH241514   3.931   4.387   6.113 -0.1441  0.2290  0.1116
 4864TIP3    H141515   3.941   4.294   6.093 -0.2568 -0.1726  1.7980
 4864TIP3    H241516   3.906   4.389   6.205 -2.0547  1.8499 -0.3837
 4865TIP3   OH241517   2.608   0.595   6.522 -0.3412  0.5999 -0.2338
 4865TIP3    H141518   2.696   0.628   6.538  0.0449 -0.3266 -0.3696
 4865TIP3    H241519   2.551   0.648   6.577  0.4288  0.5279  0.6409
 4866TIP3   OH241520   3.961   3.207   6.721  0.1278  0.3732 -0.1406
 4866TIP3    H141521   3.922   3.189   6.635  2.6063  0.2985 -1.3443
 4866TIP3    H241522   4.023   3.278   6.704 -0.3054  1.2983  1.9135
 4867TIP3   OH241523   1.237   5.303   5.610  0.0857  0.2997 -0.0729
 4867TIP3    H141524   1.312   5.307   5.551  1.4290  2.1201  1.6189
 4867TIP3    H241525   1.174   5.246   5.565  1.6758  0.2620 -2.4407
 4868TIP3   OH241526   5.640   4.034   6.002 -0.3292 -0.0829  0.4301
 4868TIP3    H141527   5.676   4.031   6.091  0.3664 -1.4302  0.1300
 4868TIP3    H241528   5.657   4.124   5.972 -0.0871  0.2267  1.4492
 4869TIP3   OH241529   1.709   0.368   0.899 -0.7591  0.0337 -0.3129
 4869TIP3    H141530   1.721   0.336   0.810 -0.4006 -0.1636 -0.1984
 4869TIP3    H241531   1.763   0.447   0.903 -0.0914 -0.4204 -0.0290
 4870TIP3   OH241532   6.733   3.565   1.006 -0.6147 -0.5400 -0.4403
 4870TIP3    H141533   6.750   3.570   1.100 -0.3716 -1.9624 -0.3769
 4870TIP3    H241534   6.740   3.655   0.975  3.0343 -0.4185  0.3052
 4871TIP3   OH241535   7.440   3.454   1.506  0.0800  0.1515 -0.2680
 4871TIP3    H141536   7.398   3.540   1.502 -3.3716 -1.3243 -0.0787
 4871TIP3    H241537   7.382   3.397   1.454  0.4134 -2.6303  2.1513
 4872TIP3   OH241538   6.710   2.611   1.581  0.0387  0.1899  0.0973
 4872TIP3    H141539   6.806   2.611   1.573  0.0227 -1.2747 -0.6099
 4872TIP3    H241540   6.691   2.531   1.629 -0.8548  0.1125 -0.3686
 4873TIP3   OH241541   5.450   4.534   1.879 -0.2158  0.5876 -0.0161
 4873TIP3    H141542   5.416   4.453   1.840 -1.5328  0.4309  1.3804
 4873TIP3    H241543   5.523   4.505   1.934  0.7909  0.6591 -1.2499
 4874TIP3   OH241544   0.438   5.025   6.743  0.4683  0.6302 -0.2472
 4874TIP3    H141545   0.490   5.088   6.793  1.8409 -1.6735  1.4077
 4874TIP3    H241546   0.386   5.079   6.683  1.4311  3.3075  1.1727
 4875TIP3   OH241547   8.174   5.925   1.177 -0.1308  0.7621  0.1973
 4875TIP3    H141548   8.176   5.833   1.149  0.4560  0.3598  1.5074
 4875TIP3    H241549   8.198   5.974   1.098  2.2164 -0.3750  0.1161
 4876TIP3   OH241550   2.139   6.965   0.735  0.0996  0.2777 -0.2070
 4876TIP3    H141551   2.101   6.912   0.805 -1.9106  0.5850 -0.9934
 4876TIP3    H241552   2.063   7.002   0.690  1.3632  0.8396 -1.9595
 4877TIP3   OH241553   2.715   1.685   6.689  0.1420  0.1305 -0.7773
 4877TIP3    H141554   2.714   1.755   6.755  0.2369  0.5287 -1.1959
 4877TIP3    H241555   2.713   1.604   6.740 -2.3859  0.4085 -0.2928
 4878TIP3   OH241556   2.220   6.504   6.574 -0.9192 -0.1944  0.2396
 4878TIP3    H141557   2.132   6.472   6.593 -1.1182  0.6101  0.7038
 4878TIP3    H241558   2.217   6.527   6.481 -1.8192  1.6709  0.6706
 4879TIP3   OH241559   0.689   0.204   0.056  0.0099  0.5558  0.0616
 4879TIP3    H141560   0.676   0.132   0.117  0.7640  1.2468  1.0866
 4879TIP3    H241561   0.650   0.175   7.045 -1.7988 -0.0672  1.0994
 4880TIP3   OH241562   0.260   3.622   1.264  0.0567 -0.4135  1.0337
 4880TIP3    H141563   0.299   3.705   1.293 -1.0058  0.8691 -0.9442
 4880TIP3    H241564   0.205   3.595   1.337 -0.3087  1.1403  1.3807
 4881TIP3   OH241565   7.343   2.700   0.439  0.4891 -0.7315  0.0416
 4881TIP3    H141566   7.426   2.657   0.455  0.1811 -1.1084  0.6418
 4881TIP3    H241567   7.314   2.664   0.355  0.4751 -1.3299  0.2952
 4882TIP3   OH241568   3.961   3.739   4.785  0.7801 -0.1756 -0.5079
 4882TIP3    H141569   4.051   3.731   4.818  0.8702  1.4733 -0.2694
 4882TIP3    H241570   3.957   3.677   4.712  2.0542 -0.4056 -0.4150
 4883TIP3   OH241571   6.914   8.395   6.600  0.4074  0.1014  0.4372
 4883TIP3    H141572   6.918   8.476   6.550  1.7647 -0.8323 -1.0420
 4883TIP3    H241573   6.967   8.333   6.551  1.7697 -0.9303  2.9952
 4884TIP3   OH241574   4.159   6.566   6.242 -0.2326 -0.1555 -0.0045
 4884TIP3    H141575   4.096   6.541   6.175  0.0522 -0.3025 -0.2174
 4884TIP3    H241576   4.154   6.496   6.307  0.4462 -0.6982 -0.5205
 4885TIP3   OH241577   4.820   4.029   6.291 -0.2198 -0.4338 -0.0398
 4885TIP3    H141578   4.841   4.123   6.295  0.7359 -0.6575  0.4655
 4885TIP3    H241579   4.858   3.992   6.370  2.9773 -1.8995 -2.0441
 4886TIP3   OH241580   4.964   4.013   0.137  0.0596 -0.6425  0.1105
 4886TIP3    H141581   5.017   4.077   0.185 -0.9841  1.1123 -0.9406
 4886TIP3    H241582   4.891   3.994   0.195  0.3010 -0.7845  0.3706
 4887TIP3   OH241583   8.475   8.297   0.949  0.1844 -0.0554 -0.7610
 4887TIP3    H141584   8.449   8.279   1.040 -0.2029  3.0991 -0.1385
 4887TIP3    H241585   0.022   8.248   0.938 -0.0745 -1.0004  1.0537
 4888TIP3   OH241586   0.586   4.122   1.488  0.0781  0.0314  0.7732
 4888TIP3    H141587   0.584   4.088   1.577  0.3489 -0.9283  0.4197
 4888TIP3    H241588   0.567   4.216   1.498  0.4013 -0.0068  1.8571
 4889TIP3   OH241589   5.560   7.229   6.664 -0.5964 -0.2947 -0.0385
 4889TIP3    H141590   5.616   7.181   6.604 -0.1142 -1.2581  1.1447
 4889TIP3    H241591   5.606   7.312   6.677 -0.2119 -0.4702 -0.2456
 4890TIP3   OH241592   2.184   5.673   6.259  0.3421 -0.4003 -0.4984
 4890TIP3    H141593   2.111   5.641   6.313 -0.5686  1.2323 -0.6891
 4890TIP3    H241594   2.190   5.609   6.188 -0.7215 -0.7454 -0.3091
 4891TIP3   OH241595   7.694   4.026   5.762 -0.2320  0.1536  0.1270
 4891TIP3    H141596   7.745   4.032   5.843 -0.6768 -0.3496  0.4500
 4891TIP3    H241597   7.715   4.107   5.715  0.3069  0.2865  0.5784
 4892TIP3   OH241598   0.361   5.949   1.856  0.2149 -0.0094 -0.3299
 4892TIP3    H141599   0.281   5.901   1.836  0.3132  0.0924 -0.9829
 4892TIP3    H241600   0.432   5.889   1.835  0.3214  0.0732 -0.2142
 4893TIP3   OH241601   8.139   5.566   0.062  0.2408  0.5232 -0.6397
 4893TIP3    H141602   8.234   5.556   0.061  0.3796  1.5071 -2.6038
 4893TIP3    H241603   8.124   5.653   0.098  0.2871  1.4624 -2.7627
 4894TIP3   OH241604   0.888   3.009   1.845  0.2911  0.4006 -0.3771
 4894TIP3    H141605   0.935   3.069   1.903 -1.0236  0.9253  0.2002
 4894TIP3    H241606   0.919   3.031   1.757  0.1619  1.6322 -0.1332
 4895TIP3   OH241607   8.175   1.454   0.844  0.2234 -0.8352 -0.3171
 4895TIP3    H141608   8.162   1.412   0.759 -1.5557  1.6359 -1.3901
 4895TIP3    H241609   8.187   1.547   0.823  0.8990 -0.3074  2.0920
 4896TIP3   OH241610   0.134   5.834   1.778  0.2667 -0.1534  0.1553
 4896TIP3    H141611   0.052   5.816   1.825 -1.4290  1.0304 -2.1776
 4896TIP3    H241612   0.144   5.760   1.718  0.2134  0.3221 -0.4490
 4897TIP3   OH241613   0.632   4.964   5.784  0.5772  0.4786 -0.5383
 4897TIP3    H141614   0.664   4.938   5.698 -0.8020  1.9815 -1.5651
 4897TIP3    H241615   0.706   5.011   5.824  0.5918  1.5824 -1.7746
 4898TIP3   OH241616   5.353   5.647   1.354 -0.9870 -0.8640 -0.3366
 4898TIP3    H141617   5.357   5.552   1.369 -2.2500 -0.9814 -0.5695
 4898TIP3    H241618   5.279   5.676   1.407 -0.9671 -0.0992 -0.7198
 4899TIP3   OH241619   3.550   0.384   7.015 -0.2014 -0.2417  0.1437
 4899TIP3    H141620   3.638   0.362   6.985 -0.0327  0.3979  0.1431
 4899TIP3    H241621   3.492   0.329   6.962 -0.0515  2.3184 -3.0166
 4900TIP3   OH241622   3.411   7.868   0.394 -0.0410  0.0402 -0.5253
 4900TIP3    H141623   3.435   7.869   0.301 -0.0676  1.5058 -0.5458
 4900TIP3    H241624   3.348   7.940   0.404 -1.5164 -1.3084  0.2822
 4901TIP3   OH241625   2.328   8.360   6.051 -0.0826  0.1213 -0.2556
 4901TIP3    H141626   2.421   8.355   6.032 -0.0012 -0.5797  0.2736
 4901TIP3    H241627   2.323   8.383   6.144 -0.4740  3.3766 -0.9726
 4902TIP3   OH241628   5.398   2.392   1.323 -0.3608 -0.5705  0.5287
 4902TIP3    H141629   5.395   2.466   1.384 -2.4762 -0.9944  1.0403
 4902TIP3    H241630   5.372   2.316   1.376  0.9426 -1.5576 -0.1788
 4903TIP3   OH241631   7.720   6.100   0.016  0.0212  0.2385 -0.8757
 4903TIP3    H141632   7.675   6.044   7.024 -0.2156 -1.3798  0.6324
 4903TIP3    H241633   7.689   6.189   7.068 -2.0818 -0.5333 -1.3512
 4904TIP3   OH241634   2.164   3.869   5.585  0.2720  0.4392 -0.0157
 4904TIP3    H141635   2.088   3.925   5.571  0.3435  1.0373  1.7720
 4904TIP3    H241636   2.239   3.927   5.571  0.3689  0.3456  0.1168
 4905TIP3   OH241637   7.434   2.271   6.555 -0.7244  0.1914  0.1049
 4905TIP3    H141638   7.454   2.179   6.542 -2.8206 -0.0688 -2.0429
 4905TIP3    H241639   7.487   2.317   6.490 -0.0966  0.4778  0.8022
 4906TIP3   OH241640   5.694   4.169   1.266  0.1060 -0.0980  0.1166
 4906TIP3    H141641   5.647   4.195   1.345 -1.3738 -1.6199 -0.2004
 4906TIP3    H241642   5.767   4.115   1.298 -0.1262 -0.2088  0.4585
 4907TIP3   OH241643   6.530   2.738   6.027 -0.4329 -0.4806  0.0329
 4907TIP3    H141644   6.598   2.804   6.037 -1.4780  0.4783  1.1754
 4907TIP3    H241645   6.556   2.688   5.950  1.9247 -0.6313  0.8572
 4908TIP3   OH241646   8.194   3.889   0.979 -0.5308 -0.6980 -0.6955
 4908TIP3    H141647   8.206   3.984   0.967 -1.1415 -0.7730 -2.1759
 4908TIP3    H241648   8.260   3.864   1.043 -0.3963  0.7366 -0.2295
 4909TIP3   OH241649   3.872   3.986   4.692  0.1167  0.3197  0.1615
 4909TIP3    H141650   3.893   3.911   4.749 -0.2493  0.3353  0.3207
 4909TIP3    H241651   3.806   3.952   4.632  1.3281 -0.0351 -1.0300
 4910TIP3   OH241652   0.983   2.119   0.700 -0.9390  0.6159 -0.1439
 4910TIP3    H141653   0.973   2.124   0.605 -3.4505 -0.0297  0.0132
 4910TIP3    H241654   0.937   2.038   0.724  0.3521  0.3379  1.5575
 4911TIP3   OH241655   4.298   5.362   0.759 -0.1936  0.0449 -0.5917
 4911TIP3    H141656   4.293   5.447   0.715 -0.9368  0.1100 -0.4054
 4911TIP3    H241657   4.299   5.298   0.688 -0.9324  0.1686 -0.7266
 4912TIP3   OH241658   7.051   3.036   0.615  0.3115  0.0642 -0.1739
 4912TIP3    H141659   7.018   3.123   0.590 -0.6297  0.5732  2.4536
 4912TIP3    H241660   7.144   3.039   0.594  0.6234  2.3247  1.1632
 4913TIP3   OH241661   0.678   3.189   0.089 -0.1924 -0.1022  0.0747
 4913TIP3    H141662   0.760   3.156   0.125 -0.6348  0.0504  1.2835
 4913TIP3    H241663   0.651   3.124   0.024  0.1979 -0.8469  0.6434
 4914TIP3   OH241664   5.335   4.224   0.723 -0.0586  1.0396  0.2989
 4914TIP3    H141665   5.333   4.176   0.806  0.4967 -2.2657 -1.4343
 4914TIP3    H241666   5.399   4.294   0.738  0.0120  0.5682  2.6408
 4915TIP3   OH241667   4.550   2.649   6.617 -0.2162 -0.5762  0.2031
 4915TIP3    H141668   4.558   2.705   6.694 -0.9823  1.2448 -0.9790
 4915TIP3    H241669   4.641   2.636   6.588 -0.0558  0.8249 -0.0008
 4916TIP3   OH241670   1.536   3.515   0.923 -0.3235 -0.0209  0.1635
 4916TIP3    H141671   1.503   3.577   0.988 -2.6449 -2.7883  1.8364
 4916TIP3    H241672   1.627   3.501   0.947 -0.3933  1.0228  1.1296
 4917TIP3   OH241673   6.815   4.589   0.232 -0.0836  0.6822  0.3476
 4917TIP3    H141674   6.766   4.636   0.164  0.3067  0.3002 -0.2103
 4917TIP3    H241675   6.885   4.545   0.184 -1.5403 -2.0411  0.5310
 4918TIP3   OH241676   0.287   3.533   6.296  0.4908 -0.5131  0.8559
 4918TIP3    H141677   0.257   3.583   6.220  0.6918 -0.2981  0.9142
 4918TIP3    H241678   0.218   3.545   6.362  0.5201 -0.3394  0.8561
 4919TIP3   OH241679   3.964   3.231   0.039  0.4489  0.2446 -0.2541
 4919TIP3    H141680   3.934   3.312   7.069 -0.1267  0.1789  0.0275
 4919TIP3    H241681   3.915   3.162   7.064  1.1900  0.0232 -0.7298
 4920TIP3   OH241682   3.424   1.551   6.705 -0.6945  0.3733  0.3006
 4920TIP3    H141683   3.343   1.505   6.689 -0.7594 -0.3164  2.3167
 4920TIP3    H241684   3.397   1.636   6.741 -0.5306  0.7964 -0.5525
 4921TIP3   OH241685   3.914   0.919   0.087 -0.0148  0.0942  0.1665
 4921TIP3    H141686   3.971   0.843   0.098 -0.7091 -0.4469  0.1746
 4921TIP3    H241687   3.956   0.989   0.136 -0.0847 -0.6761  1.3755
 4922TIP3   OH241688   1.252   0.001   6.271  0.2867 -0.1227 -0.6162
 4922TIP3    H141689   1.338   8.502   6.295 -0.2935 -1.6295 -0.6017
 4922TIP3    H241690   1.267   0.095   6.257  2.0086 -0.4293 -1.0397
 4923TIP3   OH241691   4.174   0.551   6.295  0.4660 -0.1455  0.1550
 4923TIP3    H141692   4.172   0.457   6.276 -1.7880 -0.2345  0.4886
 4923TIP3    H241693   4.143   0.557   6.386 -2.5453  1.0338 -0.8271
 4924TIP3   OH241694   4.761   2.185   5.492  0.1485 -0.3650 -0.1222
 4924TIP3    H141695   4.854   2.204   5.505  0.1550  0.6262 -1.3790
 4924TIP3    H241696   4.747   2.101   5.536  1.3638  0.0146  1.0695
 4925TIP3   OH241697   4.736   5.889   6.389  0.2071 -0.3282 -0.0193
 4925TIP3    H141698   4.826   5.872   6.414  0.6854  1.6286 -0.3159
 4925TIP3    H241699   4.684   5.856   6.463  1.3832  1.8540  1.8900
 4926TIP3   OH241700   7.724   7.623   0.583  0.3530  0.5867 -0.1112
 4926TIP3    H141701   7.772   7.654   0.660 -1.8709 -0.7791  1.9851
 4926TIP3    H241702   7.674   7.699   0.554 -1.6345  0.2980  2.2155
 4927TIP3   OH241703   4.283   6.904   5.913  0.4053 -0.1364  0.4709
 4927TIP3    H141704   4.375   6.919   5.935  0.8270 -1.2672 -0.4439
 4927TIP3    H241705   4.239   6.899   5.998  1.2251  0.1819  0.9270
 4928TIP3   OH241706   1.454   6.335   6.862  0.1077 -0.6485  0.2388
 4928TIP3    H141707   1.469   6.429   6.858  1.0157 -0.5387  3.6195
 4928TIP3    H241708   1.359   6.326   6.859  0.0074  0.3581 -0.0135
 4929TIP3   OH241709   5.064   7.182   0.330  0.3939  0.7563 -0.4436
 4929TIP3    H141710   5.144   7.145   0.293  1.7060  2.5466  0.4212
 4929TIP3    H241711   5.032   7.242   0.263  0.7408  1.2785 -0.1566
 4930TIP3   OH241712   4.065   3.740   0.017  0.2600  0.1357 -0.3057
 4930TIP3    H141713   4.049   3.730   6.994 -0.8834  2.2006 -0.3812
 4930TIP3    H241714   4.161   3.740   0.025  0.4077 -2.6627 -1.0799
 4931TIP3   OH241715   5.733   0.784   0.208  0.0366  0.2039  0.3061
 4931TIP3    H141716   5.712   0.693   0.188 -0.9378  0.5527 -0.3198
 4931TIP3    H241717   5.648   0.825   0.226  0.3487  1.2394 -0.4830
 4932TIP3   OH241718   1.785   0.430   7.044 -0.7753 -0.4323 -0.0054
 4932TIP3    H141719   1.880   0.435   7.034 -0.6826 -0.8656  0.6042
 4932TIP3    H241720   1.770   0.351   0.026 -1.2462  1.5289  3.0487
 4933TIP3   OH241721   4.602   0.799   0.498  0.0038  0.3060  0.2413
 4933TIP3    H141722   4.696   0.792   0.514  0.3534  0.0844 -1.6820
 4933TIP3    H241723   4.581   0.891   0.514  1.0232  0.8686 -1.4413
 4934TIP3   OH241724   2.802   0.745   5.811 -0.1592 -0.1184 -0.2215
 4934TIP3    H141725   2.862   0.795   5.867 -0.6506 -0.3742  0.5516
 4934TIP3    H241726   2.716   0.758   5.851 -0.5953  0.0636 -1.1908
 4935TIP3   OH241727   5.307   7.588   5.336 -0.3446 -0.0470 -0.7119
 4935TIP3    H141728   5.239   7.539   5.381 -1.2166  1.0197 -0.8390
 4935TIP3    H241729   5.375   7.600   5.402 -0.1925 -1.2237 -0.6207
 4936TIP3   OH241730   7.688   5.778   6.339 -0.6408 -0.1826  0.5823
 4936TIP3    H141731   7.599   5.776   6.302 -0.8533 -0.3053  1.0939
 4936TIP3    H241732   7.743   5.803   6.265 -1.0228 -0.7110  0.1082
 4937TIP3   OH241733   3.532   6.134   6.143  0.5952 -0.0478  0.1993
 4937TIP3    H141734   3.604   6.075   6.166 -0.6632 -1.4044  0.8729
 4937TIP3    H241735   3.574   6.215   6.116  2.3487 -0.5320  1.3259
 4938TIP3   OH241736   0.594   8.223   1.057 -0.6401  0.2382  1.1008
 4938TIP3    H141737   0.601   8.152   1.121  1.4149  0.4162  1.1373
 4938TIP3    H241738   0.672   8.276   1.071 -1.6923  2.0388  0.4828
 4939TIP3   OH241739   5.080   2.071   6.363 -0.3509  0.2654 -0.5831
 4939TIP3    H141740   5.040   2.065   6.276  1.1081  0.2833 -1.2880
 4939TIP3    H241741   5.023   2.132   6.411 -1.5276 -0.2227 -1.2996
 4940TIP3   OH241742   5.414   3.832   0.072  0.6113 -0.6013 -0.0504
 4940TIP3    H141743   5.386   3.903   0.014  0.3339 -0.1637  0.6210
 4940TIP3    H241744   5.333   3.790   0.099  0.3811  1.4831  2.9536
 4941TIP3   OH241745   8.346   6.662   5.334  0.0393  0.8481  0.8165
 4941TIP3    H141746   8.263   6.615   5.322  1.1742 -1.2862  0.7680
 4941TIP3    H241747   8.351   6.678   5.428  1.1165 -2.2576  1.3980
 4942TIP3   OH241748   2.212   3.379   7.014  0.2493  0.3614  0.0551
 4942TIP3    H141749   2.166   3.322   6.952 -1.1142  1.9512 -0.4342
 4942TIP3    H241750   2.290   3.407   6.967  0.9378 -1.0557  0.2989
 4943TIP3   OH241751   0.928   6.218   6.962  0.2932 -0.2039 -0.1436
 4943TIP3    H141752   0.887   6.295   7.002 -1.8836 -1.0827 -0.5337
 4943TIP3    H241753   0.942   6.158   7.035  1.4876  0.3101  0.0765
 4944TIP3   OH241754   0.106   4.555   1.181  0.1479  0.2701  0.2985
 4944TIP3    H141755   0.178   4.617   1.189  0.1814  0.2135  0.4316
 4944TIP3    H241756   0.038   4.589   1.239  0.2306  0.0890  0.5010
 4945TIP3   OH241757   2.137   0.688   0.042  0.3048  0.8666 -0.2247
 4945TIP3    H141758   2.163   0.732   0.123 -1.5119  0.7114  0.5047
 4945TIP3    H241759   2.114   0.758   7.053 -1.1261  0.9822  0.4175
 4946TIP3   OH241760   6.059   7.532   5.412 -0.0547 -0.4424  0.9571
 4946TIP3    H141761   5.996   7.461   5.402 -2.1888  1.6119 -1.9203
 4946TIP3    H241762   6.038   7.594   5.342  1.6763  3.0338  3.1743
 4947TIP3   OH241763   6.008   1.459   0.367  0.0984 -0.4309  0.4122
 4947TIP3    H141764   6.031   1.403   0.442 -0.4255 -0.4372  0.5721
 4947TIP3    H241765   5.980   1.542   0.407  0.4153 -0.2185  0.1949
 4948TIP3   OH241766   3.855   1.443   6.276  0.3634 -0.1523  0.0845
 4948TIP3    H141767   3.831   1.444   6.369 -1.7506 -0.3207 -0.4126
 4948TIP3    H241768   3.792   1.383   6.236 -0.1281  1.5320 -1.7992
 4949TIP3   OH241769   2.821   1.939   5.809  0.1129 -0.1407 -0.1721
 4949TIP3    H141770   2.890   1.877   5.832  0.5197 -0.0795 -1.1485
 4949TIP3    H241771   2.850   1.977   5.726 -0.0934  1.4148  0.4344
 4950TIP3   OH241772   4.312   4.080   1.502  0.5645 -0.4194  0.1850
 4950TIP3    H141773   4.326   3.988   1.526 -1.4905 -1.0404 -0.7018
 4950TIP3    H241774   4.379   4.128   1.551  2.2601 -2.4467  0.0134
 4951TIP3   OH241775   8.371   4.498   5.057 -0.1172 -0.4205  0.0538
 4951TIP3    H141776   8.371   4.528   4.966  0.5454  0.3301  0.2890
 4951TIP3    H241777   8.329   4.569   5.105 -0.9841 -1.0623  0.2694
 4952TIP3   OH241778   4.309   5.226   6.698  0.1975 -0.3023 -0.2849
 4952TIP3    H141779   4.265   5.302   6.735 -1.4413  0.4466 -3.3798
 4952TIP3    H241780   4.280   5.152   6.753  1.9396  1.1681  2.8627
 4953TIP3   OH241781   3.587   7.104   0.529 -0.4601  0.2987  0.6019
 4953TIP3    H141782   3.526   7.166   0.491  0.1968  0.2773 -0.5431
 4953TIP3    H241783   3.666   7.112   0.475 -0.0743 -0.9249  0.9444
 4954TIP3   OH241784   8.288   6.211   1.382 -0.3803  0.0834  0.3226
 4954TIP3    H141785   8.366   6.209   1.326  0.6396  0.1098  1.6990
 4954TIP3    H241786   8.231   6.276   1.340  0.4538  0.2789 -0.5587
 4955TIP3   OH241787   0.651   4.038   0.046 -0.0301 -0.3726 -0.2566
 4955TIP3    H141788   0.673   4.131   0.044 -1.0326 -0.0012  2.1520
 4955TIP3    H241789   0.667   4.011   0.136 -2.3870 -1.8200 -0.1699
 4956TIP3   OH241790   1.544   0.776   1.242 -0.2197  0.0393  0.0513
 4956TIP3    H141791   1.627   0.820   1.225 -1.0991  2.0660  0.6936
 4956TIP3    H241792   1.479   0.846   1.239 -1.9896 -1.5458 -0.8823
 4957TIP3   OH241793   4.117   2.477   6.731 -0.0972  0.1048  0.3364
 4957TIP3    H141794   4.099   2.456   6.640 -1.1916  1.7106  0.1548
 4957TIP3    H241795   4.154   2.565   6.730 -0.2970  0.2227  1.4629
 4958TIP3   OH241796   6.144   8.461   5.681 -0.2297 -0.2491 -0.3075
 4958TIP3    H141797   6.117   8.402   5.752  2.9369 -3.2072 -1.2948
 4958TIP3    H241798   6.082   8.442   5.610 -1.1858  0.0481  0.4195
 4959TIP3   OH241799   3.872   6.952   5.684 -0.4841  0.1049 -0.8391
 4959TIP3    H141800   3.838   6.890   5.750 -0.9877  0.1627 -1.0392
 4959TIP3    H241801   3.856   6.908   5.600  1.2960 -0.5303 -0.8854
 4960TIP3   OH241802   5.786   0.175   5.626  0.7923 -0.0128  0.0609
 4960TIP3    H141803   5.726   0.107   5.657  2.0774 -0.9762  0.5187
 4960TIP3    H241804   5.732   0.253   5.618  0.0422 -0.0673  3.2770
 4961TIP3   OH241805   4.937   4.553   6.360  0.3617 -0.8935  0.1439
 4961TIP3    H141806   4.941   4.649   6.361 -0.6925 -0.8457  0.5954
 4961TIP3    H241807   4.939   4.528   6.453 -0.1290 -1.2663  0.0586
 4962TIP3   OH241808   3.999   6.714   5.135 -0.1666 -0.1837 -0.0960
 4962TIP3    H141809   4.027   6.746   5.221  0.1274  2.1489 -0.9684
 4962TIP3    H241810   3.929   6.775   5.108 -0.3225 -0.9137 -1.4597
 4963TIP3   OH241811   0.645   8.369   5.587  0.0882  0.2466  0.3349
 4963TIP3    H141812   0.696   8.346   5.510  0.4565  1.0399  0.3316
 4963TIP3    H241813   0.555   8.380   5.555  0.5051  2.1697 -0.3237
 4964TIP3   OH241814   7.403   6.993   6.134  0.4571 -0.5245  0.3912
 4964TIP3    H141815   7.490   7.034   6.136  0.4870 -0.5223 -0.4061
 4964TIP3    H241816   7.344   7.064   6.108  0.5331 -0.9921 -1.1672
 4965TIP3   OH241817   2.216   5.064   6.373 -0.3169 -0.6391 -0.2876
 4965TIP3    H141818   2.273   5.066   6.296 -0.1231  2.0257 -0.1617
 4965TIP3    H241819   2.274   5.045   6.446  0.5836  2.2082 -0.1387
 4966TIP3   OH241820   6.464   8.155   1.001 -0.5137 -0.2118 -0.1662
 4966TIP3    H141821   6.462   8.066   1.038  0.2376 -0.1173  0.1256
 4966TIP3    H241822   6.439   8.212   1.074 -0.5264 -0.1468 -0.2214
 4967TIP3   OH241823   7.013   1.472   6.252  0.0808  0.5030  0.3417
 4967TIP3    H141824   7.103   1.447   6.229 -0.1484  1.0913 -1.3758
 4967TIP3    H241825   6.964   1.389   6.250  0.1254  0.4711 -1.2546
 4968TIP3   OH241826   5.391   0.564   0.988  0.2285 -0.6260 -0.6364
 4968TIP3    H141827   5.318   0.599   0.938 -0.1324 -0.4220  0.0305
 4968TIP3    H241828   5.469   0.593   0.940 -0.0620  1.0526 -0.1400
 4969TIP3   OH241829   7.688   7.328   6.797  0.4507  0.4750  0.0602
 4969TIP3    H141830   7.671   7.421   6.780  2.6904  1.0955  0.9261
 4969TIP3    H241831   7.659   7.315   6.887 -0.2725  0.1899 -0.2029
 4970TIP3   OH241832   5.071   3.232   0.924  0.2631 -0.2774  0.2433
 4970TIP3    H141833   4.994   3.204   0.875  0.8374 -0.2688 -0.6948
 4970TIP3    H241834   5.144   3.222   0.862  0.9578  0.0885  0.9793
 4971TIP3   OH241835   2.614   4.271   6.395 -0.2553 -0.0829 -0.5751
 4971TIP3    H141836   2.674   4.320   6.339 -2.3174  1.0659 -1.9083
 4971TIP3    H241837   2.526   4.297   6.365 -1.4466 -0.8800  1.9537
 4972TIP3   OH241838   4.403   0.330   1.340 -0.1920  0.2092 -0.2680
 4972TIP3    H141839   4.473   0.288   1.390 -0.2613 -0.4997 -0.7543
 4972TIP3    H241840   4.323   0.296   1.380 -0.2732  1.0279  0.2950
 4973TIP3   OH241841   8.185   4.377   5.262 -0.4344  0.4560 -0.2996
 4973TIP3    H141842   8.228   4.404   5.181 -1.8495  1.7075 -0.6946
 4973TIP3    H241843   8.151   4.459   5.299  1.7669  0.2230  2.5829
 4974TIP3   OH241844   4.957   5.939   2.011 -0.2542  0.2445 -0.0524
 4974TIP3    H141845   4.952   6.018   1.957 -0.3847 -0.0795 -0.5129
 4974TIP3    H241846   5.049   5.914   2.009 -0.0196  0.9222  0.8835
 4975TIP3   OH241847   4.470   3.057   0.823  0.4457  0.5761  0.0267
 4975TIP3    H141848   4.531   3.030   0.755 -0.1503  0.9516 -0.6632
 4975TIP3    H241849   4.500   3.144   0.849  1.3390 -0.0047  1.0499
 4976TIP3   OH241850   1.061   5.204   0.078  0.0290  0.5578  0.2320
 4976TIP3    H141851   1.156   5.202   0.062 -0.1781 -1.7151 -1.2929
 4976TIP3    H241852   1.044   5.126   0.130 -0.9199  1.4387  1.2780
 4977TIP3   OH241853   7.677   6.375   7.002  0.1717 -0.7893 -0.1185
 4977TIP3    H141854   7.717   6.362   6.916  1.0893  0.1959  0.1397
 4977TIP3    H241855   7.751   6.383   7.062 -0.4335 -0.1072  0.5553
 4978TIP3   OH241856   6.172   8.088   0.090 -0.3481 -0.2145  0.0437
 4978TIP3    H141857   6.101   8.147   0.116  0.2423  0.6514 -0.2594
 4978TIP3    H241858   6.238   8.099   0.158  0.4742  0.7650 -0.8768
 4979TIP3   OH241859   0.284   3.641   5.954 -0.4341  0.3846 -0.2374
 4979TIP3    H141860   0.209   3.686   5.917 -1.9337  0.4753  2.6134
 4979TIP3    H241861   0.258   3.549   5.958  0.0163  0.2581 -0.1127
 4980TIP3   OH241862   3.641   6.201   0.774 -0.3867 -0.3311  0.1411
 4980TIP3    H141863   3.659   6.111   0.747  1.5532 -0.1936  0.8081
 4980TIP3    H241864   3.717   6.250   0.744 -0.9279  0.8971  0.7113
 4981TIP3   OH241865   4.419   6.108   6.277  0.1876 -0.4879 -0.0593
 4981TIP3    H141866   4.501   6.153   6.295 -0.7436  2.2800 -2.1500
 4981TIP3    H241867   4.363   6.129   6.351  1.0924 -1.9962  1.1383
 4982TIP3   OH241868   6.079   6.010   0.909 -0.4184 -0.1687 -0.3307
 4982TIP3    H141869   6.041   6.092   0.880 -1.1070 -0.3089  0.1634
 4982TIP3    H241870   6.043   5.944   0.849 -1.3010 -0.3577  0.3691
 4983TIP3   OH241871   4.000   2.295   5.907 -0.3450  0.4587  0.2484
 4983TIP3    H141872   4.031   2.206   5.888 -0.6857  0.6466 -1.3911
 4983TIP3    H241873   4.067   2.332   5.964  0.4227 -0.4570 -0.0213
 4984TIP3   OH241874   5.787   2.700   5.822 -0.0184  0.0017 -0.1286
 4984TIP3    H141875   5.787   2.614   5.864  1.6695  1.1612  2.5914
 4984TIP3    H241876   5.759   2.760   5.891  0.6884  1.8466 -1.3583
 4985TIP3   OH241877   5.545   4.698   1.054 -0.0508 -0.5429 -0.2713
 4985TIP3    H141878   5.540   4.604   1.074  0.8390 -0.9473 -1.7840
 4985TIP3    H241879   5.459   4.732   1.078 -0.0311 -1.5176  1.3149
 4986TIP3   OH241880   6.910   6.943   6.482 -0.1161 -0.1586 -0.6960
 4986TIP3    H141881   6.878   6.992   6.406 -3.4855 -0.4336  0.3679
 4986TIP3    H241882   6.864   6.859   6.477  1.1132 -0.9516  0.6241
 4987TIP3   OH241883   0.772   0.239   5.245 -0.4104 -0.5958  0.2608
 4987TIP3    H141884   0.827   0.182   5.192  0.3093 -1.7418  2.1370
 4987TIP3    H241885   0.707   0.180   5.284  0.0362 -0.0851  1.8588
 4988TIP3   OH241886   8.298   1.238   1.687 -0.4943  0.6047  0.1759
 4988TIP3    H141887   8.228   1.267   1.629  0.4537  1.1047 -0.7447
 4988TIP3    H241888   8.330   1.318   1.729 -0.6417  0.3469  0.7906
 4989TIP3   OH241889   3.529   4.474   5.216  0.0346 -0.4657 -0.1023
 4989TIP3    H141890   3.483   4.538   5.162 -1.3030  0.1988  1.7172
 4989TIP3    H241891   3.521   4.391   5.167 -0.4250  0.2477 -1.2868
 4990TIP3   OH241892   5.169   3.294   6.684 -0.2503 -0.1419 -0.2348
 4990TIP3    H141893   5.262   3.294   6.664 -0.4423 -0.2467 -1.1643
 4990TIP3    H241894   5.127   3.331   6.606 -1.1188 -1.5131 -0.4430
 4991TIP3   OH241895   6.665   1.847   6.572  0.1890 -0.5384 -0.0732
 4991TIP3    H141896   6.741   1.825   6.517  0.3564 -2.0664  0.7018
 4991TIP3    H241897   6.686   1.810   6.658 -1.2310 -0.5657  0.2909
 4992TIP3   OH241898   0.480   1.386   6.404  0.0829  0.0581 -0.0998
 4992TIP3    H141899   0.480   1.334   6.323  1.2001  1.8184 -1.3207
 4992TIP3    H241900   0.388   1.392   6.428 -0.3072 -0.3521 -1.3682
 4993TIP3   OH241901   3.302   2.612   1.465 -0.0311 -0.1889 -0.2413
 4993TIP3    H141902   3.229   2.622   1.403  0.0277  0.4433 -0.2088
 4993TIP3    H241903   3.362   2.684   1.444 -0.3031  0.4084  0.9465
 4994TIP3   OH241904   0.559   4.369   5.724  0.3877 -0.7082  0.2424
 4994TIP3    H141905   0.538   4.444   5.668 -1.3538  1.1442  3.1310
 4994TIP3    H241906   0.654   4.373   5.735  0.3803  0.7971 -0.0463
 4995TIP3   OH241907   3.985   1.988   1.877 -0.4193 -0.6142 -0.2476
 4995TIP3    H141908   3.933   1.967   1.955 -0.2592 -0.3934 -0.0823
 4995TIP3    H241909   4.021   2.075   1.894  1.0102 -1.2649  0.1645
 4996TIP3   OH241910   0.026   2.322   0.111  0.5955 -0.2037 -0.1999
 4996TIP3    H141911   0.105   2.362   0.148 -0.6760  3.5699 -1.1430
 4996TIP3    H241912   8.491   2.383   0.134 -1.2245 -0.8175 -3.5595
 4997TIP3   OH241913   5.521   3.900   0.335  0.2074 -0.5361 -0.1931
 4997TIP3    H141914   5.570   3.982   0.329 -0.8437  0.1501  0.2477
 4997TIP3    H241915   5.479   3.891   0.250 -0.8243  0.1507  0.2247
 4998TIP3   OH241916   3.683   4.798   0.885  0.4580  0.6066 -0.2321
 4998TIP3    H141917   3.738   4.790   0.963  2.3223  2.5502 -1.2433
 4998TIP3    H241918   3.616   4.863   0.909  0.5043  0.5653  0.0133
 4999TIP3   OH241919   6.490   3.919   0.260 -0.3834 -0.1601  0.0721
 4999TIP3    H141920   6.515   4.011   0.254 -1.7490  0.3538  1.6302
 4999TIP3    H241921   6.417   3.909   0.199 -1.5907  0.3353  1.3826
 5000TIP3   OH241922   2.813   2.610   1.305  0.6406  0.3419 -0.0010
 5000TIP3    H141923   2.847   2.563   1.381  1.9924  0.6799 -0.3711
 5000TIP3    H241924   2.723   2.632   1.330 -0.2653 -2.8369 -0.0225
 5001TIP3   OH241925   1.339   0.941   1.230  0.0570 -0.2492  0.6689
 5001TIP3    H141926   1.338   1.035   1.212 -0.1399  0.0388  2.0102
 5001TIP3    H241927   1.280   0.931   1.305 -1.5956 -1.7353 -0.7291
 5002TIP3   OH241928   6.585   6.385   6.852  0.5264  0.1123  0.6763
 5002TIP3    H141929   6.637   6.371   6.773  2.5077  1.0886  1.7403
 5002TIP3    H241930   6.636   6.446   6.905 -1.6788  1.0600  1.8633
 5003TIP3   OH241931   6.885   1.561   1.371  0.4930 -0.2752 -0.1800
 5003TIP3    H141932   6.798   1.543   1.407  0.6931  0.6265  0.7794
 5003TIP3    H241933   6.868   1.613   1.293  0.1875  0.4391  0.3495
 5004TIP3   OH241934   5.932   7.464   6.870  0.4371 -0.1931 -0.8664
 5004TIP3    H141935   5.867   7.405   6.908  2.4182 -1.4318  0.8166
 5004TIP3    H241936   5.999   7.406   6.834 -0.4200  0.9782 -4.7738
 5005TIP3   OH241937   2.846   4.658   5.794 -0.3983  0.4026  0.0604
 5005TIP3    H141938   2.873   4.643   5.704 -0.9578  1.6203 -0.3333
 5005TIP3    H241939   2.911   4.719   5.829  1.0537 -1.6760  1.1914
 5006TIP3   OH241940   8.334   6.587   6.886 -0.3874 -0.0915  0.2465
 5006TIP3    H141941   8.268   6.634   6.938 -1.2778  0.4853 -1.3243
 5006TIP3    H241942   8.285   6.517   6.844 -0.0256  0.3736 -0.9901
 5007TIP3   OH241943   1.313   4.065   4.735 -0.1234 -0.1147 -0.0818
 5007TIP3    H141944   1.273   3.984   4.703 -0.1605 -0.2570  0.3221
 5007TIP3    H241945   1.404   4.061   4.704  0.3440 -1.1112  1.3519
 5008TIP3   OH241946   7.493   4.534   6.247 -0.1390 -0.5453  0.2628
 5008TIP3    H141947   7.586   4.549   6.234 -0.1967 -0.3321  0.0994
 5008TIP3    H241948   7.489   4.450   6.293  0.1468 -0.4171  0.5296
 5009TIP3   OH241949   6.394   7.718   1.320  0.3367  0.4954  0.4115
 5009TIP3    H141950   6.313   7.767   1.331 -0.1690  0.4492 -2.3013
 5009TIP3    H241951   6.368   7.626   1.329 -0.4454  0.3408 -2.3828
 5010TIP3   OH241952   1.978   2.688   6.647 -0.2806 -0.7321 -0.0493
 5010TIP3    H141953   1.983   2.633   6.569  2.1069 -0.3408 -0.2533
 5010TIP3    H241954   2.027   2.640   6.714 -0.3924 -0.0358  0.5433
 5011TIP3   OH241955   0.888   4.269   0.267 -0.3932 -0.0550  0.0311
 5011TIP3    H141956   0.941   4.224   0.333 -0.7160 -2.2139 -1.0740
 5011TIP3    H241957   0.905   4.220   0.186 -1.1306  1.5957 -1.1715
 5012TIP3   OH241958   8.031   1.966   5.542  0.3118 -0.0207 -0.4435
 5012TIP3    H141959   7.991   1.982   5.456  0.0037 -1.1497 -0.5320
 5012TIP3    H241960   8.103   1.906   5.523  1.5244  1.2869 -0.1597
 5013TIP3   OH241961   6.891   3.821   6.538  0.5691 -0.1692  0.5795
 5013TIP3    H141962   6.875   3.893   6.476 -0.5396 -1.5775 -0.8605
 5013TIP3    H241963   6.811   3.816   6.590 -0.5841 -2.1001 -1.2367
 5014TIP3   OH241964   6.429   3.444   1.106 -0.0579 -0.0273 -0.5225
 5014TIP3    H141965   6.411   3.412   1.195 -0.9918 -0.5091 -0.8722
 5014TIP3    H241966   6.412   3.538   1.110 -0.4936 -0.1126 -0.2788
 5015TIP3   OH241967   1.261   4.219   5.122  0.0519 -0.1972  0.1508
 5015TIP3    H141968   1.256   4.313   5.109  1.0211 -0.0113  0.9366
 5015TIP3    H241969   1.245   4.181   5.036  1.1944  0.7531 -0.5095
 5016TIP3   OH241970   5.272   1.735   1.104 -0.1283  0.1363 -0.0120
 5016TIP3    H141971   5.317   1.819   1.113  0.9911 -0.4766  0.2608
 5016TIP3    H241972   5.245   1.713   1.193  1.6352 -0.8739  0.3270
 5017TIP3   OH241973   3.949   5.538   0.796  0.2077 -0.6057  0.0244
 5017TIP3    H141974   3.939   5.456   0.845  1.4996 -1.5349 -1.1749
 5017TIP3    H241975   3.868   5.546   0.745 -0.0843 -0.9219  0.4324
 5018TIP3   OH241976   7.180   0.347   6.168 -0.2391  0.1422  0.4119
 5018TIP3    H141977   7.133   0.281   6.116  1.8227 -0.8575 -0.2988
 5018TIP3    H241978   7.139   0.343   6.254 -0.9261 -1.2758  0.0531
 5019TIP3   OH241979   6.698   8.366   0.558 -0.3681 -0.2240 -0.0737
 5019TIP3    H141980   6.664   8.455   0.567  1.0709  0.2511  1.0353
 5019TIP3    H241981   6.647   8.314   0.621  0.5735  0.3830  1.2270
 5020TIP3   OH241982   5.573   6.943   1.830  0.3414 -0.1504 -0.1414
 5020TIP3    H141983   5.627   6.870   1.860 -0.4459 -1.1855 -1.1465
 5020TIP3    H241984   5.537   6.980   1.910  1.5262 -0.2375  0.4555
 5021TIP3   OH241985   4.162   3.050   6.829 -0.0384  0.3268 -1.1499
 5021TIP3    H141986   4.224   3.038   6.757 -0.0323 -0.5965 -1.0104
 5021TIP3    H241987   4.102   3.117   6.798  3.2722  4.3860  0.2247
 5022TIP3   OH241988   0.239   6.544   5.339 -0.4676 -0.6296 -0.1431
 5022TIP3    H141989   0.290   6.509   5.266 -0.6113  1.4680 -1.3281
 5022TIP3    H241990   0.158   6.576   5.300 -1.0573 -0.4845  1.1244
 5023TIP3   OH241991   2.082   2.758   0.138 -0.4624  0.6531 -0.8360
 5023TIP3    H141992   2.080   2.837   0.192  2.5933  0.3000 -0.0573
 5023TIP3    H241993   2.093   2.687   0.201  0.5494 -0.0233 -1.7610
 5024TIP3   OH241994   7.112   0.344   6.434  0.6856  0.0137  0.2875
 5024TIP3    H141995   7.174   0.357   6.505  1.3129 -1.6120  0.0691
 5024TIP3    H241996   7.086   0.253   6.441  0.4443 -0.0662 -1.3116
 5025TIP3   OH241997   6.166   0.765   1.260 -0.4749  0.7833  0.3987
 5025TIP3    H141998   6.118   0.810   1.191 -1.4289 -0.8684 -0.0756
 5025TIP3    H241999   6.154   0.672   1.240  0.7901  0.2987  1.7480
 5026TIP3   OH242000   6.713   8.121   5.551  0.1571  0.0599  0.6566
 5026TIP3    H142001   6.783   8.057   5.565 -0.8061 -0.9333  1.0898
 5026TIP3    H242002   6.696   8.118   5.457  1.6398  1.3548  0.3100
 5027TIP3   OH242003   1.263   2.323   6.322  0.0803  0.0833  0.4495
 5027TIP3    H142004   1.323   2.360   6.387  0.2882 -1.0442  0.9264
 5027TIP3    H242005   1.280   2.373   6.243  0.2473  1.0870  1.1000
 5028TIP3   OH242006   8.016   7.814   1.314 -0.2005 -0.1772  0.4275
 5028TIP3    H142007   8.047   7.830   1.403  0.2959 -1.3038  0.4769
 5028TIP3    H242008   8.035   7.896   1.267 -0.0030  0.2456  1.2312
 5029TIP3   OH242009   3.624   5.277   0.277 -0.3607 -0.0885  0.4230
 5029TIP3    H142010   3.544   5.297   0.326 -0.0065  1.7776  0.3033
 5029TIP3    H242011   3.617   5.183   0.257 -1.9696 -0.2085  1.3705
 5030TIP3   OH242012   0.604   0.342   6.178 -0.3075  0.7391  0.0336
 5030TIP3    H142013   0.687   0.363   6.220 -1.2366  1.2882  1.6756
 5030TIP3    H242014   0.608   0.248   6.163  0.4140  0.6819  0.5163
 5031TIP3   OH242015   1.992   6.574   1.730 -0.2408  0.4505  0.0877
 5031TIP3    H142016   1.943   6.561   1.810 -1.1018 -1.9854 -0.7545
 5031TIP3    H242017   2.084   6.563   1.756 -0.4426  0.5570  0.8730
 5032TIP3   OH242018   4.875   1.019   1.891 -0.3139 -0.0748  0.9719
 5032TIP3    H142019   4.941   0.994   1.956  0.4906  0.0729  0.2433
 5032TIP3    H242020   4.805   0.955   1.901  1.6031 -2.6716 -0.7387
 5033TIP3   OH242021   7.650   6.589   0.928 -0.1800 -0.0358 -0.4584
 5033TIP3    H142022   7.721   6.544   0.974  0.8478  2.2630  0.3620
 5033TIP3    H242023   7.682   6.678   0.916 -1.4451  0.1295 -3.4600
 5034TIP3   OH242024   6.507   8.346   1.531 -0.3035  0.2398 -0.6795
 5034TIP3    H142025   6.469   8.267   1.571  2.7267  0.4771  3.2965
 5034TIP3    H242026   6.554   8.313   1.455 -1.7022 -1.2528 -0.9664
 5035TIP3   OH242027   1.457   0.247   0.599  0.1351 -0.2587 -0.1556
 5035TIP3    H142028   1.489   0.314   0.539 -1.7374  0.1241 -0.8098
 5035TIP3    H242029   1.447   0.169   0.546  2.6345 -1.2488  0.6792
 5036TIP3   OH242030   2.954   3.176   5.478  0.3713 -0.6179 -0.0132
 5036TIP3    H142031   3.019   3.126   5.428  0.5093  1.1716 -1.7192
 5036TIP3    H242032   2.890   3.204   5.412  0.1963  1.2653  0.9086
 5037TIP3   OH242033   0.777   5.249   5.338  0.6044 -0.6244 -0.1763
 5037TIP3    H142034   0.850   5.189   5.322  0.8189 -0.2484 -0.6285
 5037TIP3    H242035   0.776   5.307   5.262  0.2300 -0.2209  0.1276
 5038TIP3   OH242036   1.853   7.215   0.344 -0.5188  0.3940 -0.4476
 5038TIP3    H142037   1.899   7.144   0.299  0.3835  1.3177 -1.0138
 5038TIP3    H242038   1.766   7.216   0.305 -0.1072  0.4546 -1.3762
 5039TIP3   OH242039   6.609   7.380   6.266 -0.1986 -0.3990 -0.1987
 5039TIP3    H142040   6.544   7.447   6.245 -0.0647  0.0096  0.6564
 5039TIP3    H242041   6.602   7.368   6.361  0.1336 -1.2303 -0.2695
 5040TIP3   OH242042   3.841   2.647   6.630  0.1199 -0.3884 -0.3307
 5040TIP3    H142043   3.859   2.671   6.720  0.1733  0.8785 -0.6686
 5040TIP3    H242044   3.864   2.554   6.625  1.8198 -0.0454  0.4974
 5041TIP3   OH242045   0.693   0.437   0.453  0.2288 -0.4950  0.0654
 5041TIP3    H142046   0.702   0.512   0.512 -1.1327 -0.5053  0.3259
 5041TIP3    H242047   0.648   0.473   0.376  0.5407 -0.8159 -0.2656
 5042TIP3   OH242048   3.544   5.372   5.759 -0.1056 -0.3924 -0.3079
 5042TIP3    H142049   3.639   5.374   5.755 -0.1510 -0.0428 -2.3034
 5042TIP3    H242050   3.522   5.281   5.778  0.6168 -0.5191 -0.0548
 5043TIP3   OH242051   7.713   0.105   0.275 -0.0966 -0.1375  0.2874
 5043TIP3    H142052   7.795   0.145   0.246  0.9053 -0.3010  2.6546
 5043TIP3    H242053   7.711   0.020   0.232 -0.0546  0.6700 -1.3688
 5044TIP3   OH242054   6.901   6.914   0.078 -0.1510  0.7142  0.9607
 5044TIP3    H142055   6.860   6.864   0.148  1.9886 -0.2337  1.6188
 5044TIP3    H242056   6.871   6.871   7.068 -0.6087  0.1797  1.4088
 5045TIP3   OH242057   0.606   4.938   0.161 -1.0007 -0.2192  0.3195
 5045TIP3    H142058   0.642   4.852   0.142 -0.2899  0.0737  0.3211
 5045TIP3    H242059   0.519   4.920   0.197 -1.7014 -0.8420 -1.5736
 5046TIP3   OH242060   5.734   3.631   5.378  0.4961  0.1998 -0.5401
 5046TIP3    H142061   5.647   3.596   5.392  0.4239  0.3379 -0.6384
 5046TIP3    H242062   5.793   3.556   5.387  0.3375  0.0400 -0.8346
 5047TIP3   OH242063   7.349   5.724   5.278 -0.1657  0.0654  0.2466
 5047TIP3    H142064   7.334   5.816   5.302  0.2848  0.2530 -0.1722
 5047TIP3    H242065   7.400   5.728   5.197  0.1719 -0.5546  0.4203
 5048TIP3   OH242066   0.197   0.872   6.619  0.4412 -0.2101 -0.3901
 5048TIP3    H142067   0.166   0.788   6.586 -0.7586  0.2364 -0.4459
 5048TIP3    H242068   0.277   0.850   6.668 -0.2656 -1.4847  0.2424
 5049TIP3   OH242069   8.246   8.370   6.960  0.3491 -0.5424  0.0770
 5049TIP3    H142070   8.263   8.277   6.950  2.1377 -0.3156  0.5670
 5049TIP3    H242071   8.179   8.376   7.028 -1.3303 -1.5056 -1.4019
 5050TIP3   OH242072   6.850   0.763   5.739 -0.1479 -0.2277 -0.4151
 5050TIP3    H142073   6.812   0.819   5.670  0.7305 -1.2201 -1.7322
 5050TIP3    H242074   6.942   0.755   5.716  0.1659 -0.5887  0.8931
 5051TIP3   OH242075   2.668   1.222   6.955  0.1660  0.2830  0.6588
 5051TIP3    H142076   2.663   1.167   6.877  0.7122 -1.2649  1.6554
 5051TIP3    H242077   2.743   1.187   7.003 -0.3444  0.9857  2.0138
 5052TIP3   OH242078   1.518   5.016   6.793 -0.1481  0.3973 -0.1903
 5052TIP3    H142079   1.448   5.006   6.858 -2.4565 -0.8193 -2.6847
 5052TIP3    H242080   1.483   5.078   6.729 -0.0282 -1.8999 -2.6753
 5053TIP3   OH242081   4.838   1.979   6.557 -0.4850 -0.3943 -0.5896
 5053TIP3    H142082   4.808   2.034   6.485 -2.0900 -1.3192 -0.6590
 5053TIP3    H242083   4.920   1.941   6.526 -0.2373  0.6070 -1.1989
 5054TIP3   OH242084   7.784   3.660   0.869 -0.0434  0.4308 -0.3393
 5054TIP3    H142085   7.802   3.631   0.959  1.5215  0.3251 -0.6542
 5054TIP3    H242086   7.850   3.727   0.851 -0.5253  0.6707 -1.3103
 5055TIP3   OH242087   7.027   8.504   0.450  0.1761  0.2213  0.1658
 5055TIP3    H142088   6.977   0.035   0.498 -1.7742 -0.5021 -0.7610
 5055TIP3    H242089   7.068   8.451   0.519  0.2762  1.2689  0.9444
 5056TIP3   OH242090   2.131   1.341   5.564 -0.0695  0.8317  0.0998
 5056TIP3    H142091   2.056   1.282   5.574 -0.5409  1.5445  0.8731
 5056TIP3    H242092   2.117   1.383   5.479 -0.3673  0.7171  0.0909
 5057TIP3   OH242093   3.447   5.865   6.952  0.2714  0.4904 -0.2042
 5057TIP3    H142094   3.454   5.789   6.894  0.9870 -1.2483  2.0418
 5057TIP3    H242095   3.353   5.878   6.964  0.0907 -1.6816  1.3119
 5058TIP3   OH242096   3.458   6.484   5.252 -0.3530 -0.0354 -0.3073
 5058TIP3    H142097   3.466   6.490   5.157 -0.2972 -0.9517 -0.3638
 5058TIP3    H242098   3.487   6.570   5.284  0.3092  0.0330 -1.0771
 5059TIP3   OH242099   1.904   7.051   6.625  0.7163  0.2173  0.1597
 5059TIP3    H142100   1.896   6.961   6.595  0.2443  0.2986  0.0377
 5059TIP3    H242101   1.959   7.046   6.703  0.0689 -0.2713  0.5949
 5060TIP3   OH242102   1.508   7.502   0.751  0.4865 -0.0570 -0.2146
 5060TIP3    H142103   1.558   7.441   0.697  1.3313  1.9728 -1.8076
 5060TIP3    H242104   1.567   7.526   0.822 -0.3593 -2.1200  1.3097
 5061TIP3   OH242105   5.095   5.499   6.832  0.2744  0.2623 -0.3779
 5061TIP3    H142106   5.137   5.417   6.807 -0.8537 -0.7620  0.9720
 5061TIP3    H242107   5.134   5.521   6.917 -2.1670 -0.9961  1.1747
 5062TIP3   OH242108   1.548   2.937   6.259  0.5484 -0.2305  0.7457
 5062TIP3    H142109   1.634   2.899   6.241 -0.0041 -1.2547  0.2042
 5062TIP3    H242110   1.568   3.025   6.292  1.7256  0.6309 -1.9834
 5063TIP3   OH242111   5.706   2.262   1.887  0.3118 -0.0624  0.1790
 5063TIP3    H142112   5.754   2.219   1.815 -0.8539  0.3067 -0.8602
 5063TIP3    H242113   5.765   2.331   1.917  0.2915  0.7058 -1.4020
 5064TIP3   OH242114   8.291   5.034   1.226 -0.6406  0.9776  0.0791
 5064TIP3    H142115   8.228   4.967   1.251 -2.1248  1.8240 -1.2386
 5064TIP3    H242116   8.351   4.988   1.167  0.7744 -0.1276  2.2422
 5065TIP3   OH242117   2.563   5.909   0.005 -0.2351  0.0440  0.5744
 5065TIP3    H142118   2.616   5.982   0.034 -1.4332  1.0494  0.3373
 5065TIP3    H242119   2.503   5.892   0.078 -1.1731  0.5227 -0.0682
 5066TIP3   OH242120   8.101   3.497   1.014 -0.1066 -0.0826  0.0188
 5066TIP3    H142121   8.153   3.542   1.080  0.4982 -0.1030 -0.4371
 5066TIP3    H242122   8.012   3.529   1.028 -0.0904 -0.4773  1.1792
 5067TIP3   OH242123   7.547   6.697   1.219 -0.0035 -0.0240  0.3888
 5067TIP3    H142124   7.511   6.751   1.290  0.0979 -1.4705  1.5777
 5067TIP3    H242125   7.560   6.759   1.147  0.6821  1.6772  1.8779
 5068TIP3   OH242126   2.006   4.753   0.124 -0.2172  0.4467 -0.0854
 5068TIP3    H142127   2.019   4.682   0.187 -1.6927  0.7285  0.5960
 5068TIP3    H242128   1.949   4.715   0.057  0.9367  0.3005 -1.0125
 5069TIP3   OH242129   7.531   3.019   0.187  0.1210 -0.0647  0.7139
 5069TIP3    H142130   7.484   2.941   0.157 -0.2232 -0.1493  1.4568
 5069TIP3    H242131   7.462   3.080   0.213  0.4090  0.0579  1.1916
 5070TIP3   OH242132   8.136   5.255   5.268  0.1307 -0.2108  0.3893
 5070TIP3    H142133   8.201   5.212   5.212 -1.8113  0.4695 -2.6245
 5070TIP3    H242134   8.171   5.344   5.281  0.3097 -0.1677 -0.3283
 5071TIP3   OH242135   6.504   3.892   6.258  0.1030 -0.4233  0.0602
 5071TIP3    H142136   6.521   3.939   6.177 -0.0300 -0.1488  0.1905
 5071TIP3    H242137   6.548   3.944   6.326  0.6365 -0.9142  0.1026
 5072TIP3   OH242138   0.635   7.878   1.448 -0.0755 -0.3336 -0.4412
 5072TIP3    H142139   0.592   7.961   1.466 -0.8760 -0.9169  0.4404
 5072TIP3    H242140   0.599   7.849   1.365  1.9174  1.2654 -1.9773
 5073TIP3   OH242141   2.179   7.942   6.445 -0.1971  0.5218 -0.3830
 5073TIP3    H142142   2.117   7.896   6.502  0.3559 -0.4874 -0.5591
 5073TIP3    H242143   2.216   7.872   6.390  2.2638  0.7954  0.7863
 5074TIP3   OH242144   4.414   0.545   6.141 -0.3719 -0.2945 -0.1055
 5074TIP3    H142145   4.322   0.552   6.168 -0.5691  0.0293 -0.8246
 5074TIP3    H242146   4.415   0.581   6.052  0.3208 -0.9453 -0.3731
 5075TIP3   OH242147   7.864   2.840   0.615 -0.2125  0.2943 -0.0421
 5075TIP3    H142148   7.904   2.877   0.536 -0.4579  0.8667  0.0962
 5075TIP3    H242149   7.938   2.826   0.675 -0.2185  1.5247  0.2833
 5076TIP3   OH242150   2.014   5.514   6.011  0.4284 -0.2914 -0.4967
 5076TIP3    H142151   2.067   5.579   5.966  0.0160 -0.6671 -1.5466
 5076TIP3    H242152   1.946   5.489   5.948 -0.4978 -0.4387  0.5114
 5077TIP3   OH242153   1.564   0.647   6.158  0.5625  0.4931 -0.0078
 5077TIP3    H142154   1.561   0.671   6.251 -2.7098  0.2640  0.0532
 5077TIP3    H242155   1.503   0.707   6.116  0.2240 -0.9056 -1.6074
 5078TIP3   OH242156   7.875   1.695   6.155  0.1681  0.0777 -0.6750
 5078TIP3    H142157   7.784   1.697   6.125 -0.2156  0.7936  0.4401
 5078TIP3    H242158   7.891   1.603   6.176 -1.7468  0.3967  3.0638
 5079TIP3   OH242159   7.243   4.333   6.062  0.4630  0.9386  0.1615
 5079TIP3    H142160   7.305   4.391   6.019 -1.0221 -0.2634 -4.0694
 5079TIP3    H242161   7.227   4.374   6.147  4.5413  2.9283  0.1846
 5080TIP3   OH242162   5.033   3.337   6.427  0.4523 -0.6928  0.6805
 5080TIP3    H142163   5.076   3.398   6.366 -0.2413 -0.1906  0.6840
 5080TIP3    H242164   5.042   3.251   6.385  1.4126 -0.5994  0.6574
 5081TIP3   OH242165   7.762   5.508   4.805 -0.7744 -0.2903 -0.1486
 5081TIP3    H142166   7.849   5.479   4.777 -1.3117 -0.2526 -2.0563
 5081TIP3    H242167   7.779   5.573   4.873  0.6363 -1.1417  0.3488
 5082TIP3   OH242168   7.963   6.139   4.722 -0.5717 -0.1508  0.3350
 5082TIP3    H142169   7.941   6.046   4.729  0.6020 -0.6575 -1.8488
 5082TIP3    H242170   8.025   6.154   4.793 -2.0645 -0.5609  1.7855
 5083TIP3   OH242171   6.995   6.440   4.727  0.0608 -0.3019 -0.0014
 5083TIP3    H142172   6.946   6.371   4.681  0.4894 -0.2254 -0.5823
 5083TIP3    H242173   6.996   6.412   4.818 -0.5780 -0.5915 -0.0791
 5084TIP3   OH242174   3.493   4.801   6.348  0.5312  0.4925  0.2102
 5084TIP3    H142175   3.567   4.860   6.366 -0.2417  2.0654 -1.4141
 5084TIP3    H242176   3.514   4.761   6.264 -0.3736  0.8559 -0.2040
 5085TIP3   OH242177   0.141   8.208   5.888  0.0659  0.2648  0.3501
 5085TIP3    H142178   0.128   8.207   5.982 -0.6360  1.4597  0.2873
 5085TIP3    H242179   0.222   8.158   5.874 -1.1435 -2.1251  1.3291
 5086TIP3   OH242180   4.576   8.244   6.066  0.2649 -0.7975 -0.2013
 5086TIP3    H142181   4.662   8.205   6.083  0.2068 -1.6612 -1.7102
 5086TIP3    H242182   4.517   8.201   6.127  0.9237 -0.0717  0.9691
 5087TIP3   OH242183   0.250   6.246   0.206  0.4104  0.3139  0.1489
 5087TIP3    H142184   0.259   6.310   0.277  0.5665  0.5804 -0.1060
 5087TIP3    H242185   0.299   6.285   0.134  0.7453 -0.2333  0.0804
 5088TIP3   OH242186   7.554   5.555   1.711 -0.2453 -0.2459 -0.7060
 5088TIP3    H142187   7.563   5.593   1.798 -0.1123 -0.2102 -0.7342
 5088TIP3    H242188   7.467   5.516   1.710 -0.0422 -0.7233 -0.3726
 5089TIP3   OH242189   1.072   0.355   0.325  0.1882 -0.1961  0.2482
 5089TIP3    H142190   1.069   0.259   0.326 -1.3347 -0.1849 -0.6714
 5089TIP3    H242191   1.015   0.382   0.396 -1.2754  0.0117 -0.9675
 5090TIP3   OH242192   5.645   6.806   1.390 -0.4053 -0.4491 -0.1894
 5090TIP3    H142193   5.723   6.752   1.400 -0.1547 -0.1549 -0.5465
 5090TIP3    H242194   5.620   6.829   1.480 -0.3904 -0.9700 -0.0449
 5091TIP3   OH242195   4.803   4.205   5.959 -0.0540 -0.4563  0.2677
 5091TIP3    H142196   4.795   4.297   5.933 -0.2864 -0.0469  1.6981
 5091TIP3    H242197   4.794   4.206   6.054  2.5857 -1.6627  0.6236
 5092TIP3   OH242198   1.267   8.235   6.418 -0.0538  0.0416 -0.5229
 5092TIP3    H142199   1.290   8.317   6.375 -0.7181  0.1115 -0.7534
 5092TIP3    H242200   1.351   8.191   6.432  0.4193  1.2829  0.6853
 5093TIP3   OH242201   0.029   4.503   0.267  0.3588 -0.4739 -0.4824
 5093TIP3    H142202   0.037   4.420   0.314  0.0144  0.1332  0.6968
 5093TIP3    H242203   0.001   4.478   0.179  1.6807 -1.6845 -0.5978
 5094TIP3   OH242204   0.976   1.185   5.085  0.0797 -0.2382 -0.2740
 5094TIP3    H142205   1.047   1.130   5.118 -0.5247 -0.6709  0.3456
 5094TIP3    H242206   0.913   1.122   5.048 -1.5200 -0.1948  2.1294
 5095TIP3   OH242207   0.842   6.163   1.880  0.0524 -0.4316 -0.0458
 5095TIP3    H142208   0.861   6.241   1.827 -1.8144 -0.0493 -0.2083
 5095TIP3    H242209   0.750   6.144   1.864  0.6925 -3.3666 -0.8570
 5096TIP3   OH242210   6.246   5.241   0.442 -0.6209 -0.9687 -0.4121
 5096TIP3    H142211   6.177   5.283   0.391 -0.0276 -0.5199 -0.8663
 5096TIP3    H242212   6.246   5.287   0.526 -2.1969 -2.2980  0.3737
 5097TIP3   OH242213   1.638   3.375   0.107 -0.2860 -0.2669 -0.5440
 5097TIP3    H142214   1.702   3.410   0.168 -0.3864 -0.3533 -0.3899
 5097TIP3    H242215   1.583   3.451   0.084  0.5855  0.0737 -1.5802
 5098TIP3   OH242216   2.824   4.497   0.164 -0.4970 -0.0159  0.4797
 5098TIP3    H142217   2.791   4.409   0.184 -0.2148 -0.3031 -0.3029
 5098TIP3    H242218   2.815   4.505   0.069  2.0047 -0.2636  0.1587
 5099TIP3   OH242219   6.453   2.216   6.955  0.4190 -0.1366 -0.0432
 5099TIP3    H142220   6.420   2.254   6.873 -1.0885 -0.6712  0.2847
 5099TIP3    H242221   6.538   2.258   6.968 -0.7483  2.4679 -0.1782
 5100TIP3   OH242222   6.655   1.165   1.014  0.2354  0.1073 -0.2568
 5100TIP3    H142223   6.607   1.160   0.932 -1.9726  0.0170  0.9613
 5100TIP3    H242224   6.690   1.254   1.016  1.7073 -0.3647 -1.9556
 5101TIP3   OH242225   5.252   3.220   0.718 -0.2363 -0.8089  0.4680
 5101TIP3    H142226   5.274   3.131   0.689  0.9429 -0.2960 -0.2689
 5101TIP3    H242227   5.289   3.277   0.651  0.6802  0.3275  1.8657
 5102TIP3   OH242228   6.094   8.391   6.503  0.3235  0.2390 -0.2137
 5102TIP3    H142229   6.148   8.442   6.563  1.4362 -0.8729 -0.2327
 5102TIP3    H242230   6.076   8.451   6.430 -0.6904  1.4587  0.9904
 5103TIP3   OH242231   4.467   5.853   6.187  0.6604 -0.9294 -0.1119
 5103TIP3    H142232   4.533   5.792   6.220  2.8756  0.8782 -0.9409
 5103TIP3    H242233   4.484   5.935   6.233  0.3896  0.1797 -1.8898
 5104TIP3   OH242234   5.752   5.371   6.791  0.2315 -0.0468  1.1233
 5104TIP3    H142235   5.746   5.464   6.774  0.6638 -0.4814 -1.8463
 5104TIP3    H242236   5.675   5.351   6.844  1.3651  2.3048  3.9129
 5105TIP3   OH242237   5.062   2.344   6.945 -0.3864 -0.3613  0.8306
 5105TIP3    H142238   5.006   2.274   6.911  0.4204  0.2134 -1.8455
 5105TIP3    H242239   5.123   2.298   7.004 -0.5140 -1.7614 -0.0786
 5106TIP3   OH242240   3.714   0.990   0.250 -0.2602 -0.5557  0.0765
 5106TIP3    H142241   3.786   0.947   0.203  0.4675  0.8540 -0.1342
 5106TIP3    H242242   3.641   0.988   0.189  0.2413 -0.0644 -0.5432
 5107TIP3   OH242243   1.314   1.766   0.556  0.0778 -0.0128  0.6636
 5107TIP3    H142244   1.284   1.769   0.465 -1.7632 -1.5289  1.1661
 5107TIP3    H242245   1.390   1.708   0.554 -1.1183 -1.6555  0.3240
 5108TIP3   OH242246   2.174   4.226   5.629  0.2779  0.4803  0.0651
 5108TIP3    H142247   2.261   4.262   5.613  0.7185  0.6408  2.3809
 5108TIP3    H242248   2.187   4.162   5.699 -1.4268  0.3632  0.3218
 5109TIP3   OH242249   4.464   7.281   6.283  0.6769  0.3227  0.6355
 5109TIP3    H142250   4.509   7.205   6.319 -0.5865 -0.3869  0.7481
 5109TIP3    H242251   4.398   7.245   6.224  0.8486  1.3776 -0.2528
 5110TIP3   OH242252   0.883   2.284   5.612 -0.0433 -0.4596 -0.6148
 5110TIP3    H142253   0.962   2.260   5.562  0.0399 -1.5821  0.0207
 5110TIP3    H242254   0.916   2.311   5.697 -0.2653  0.3843 -0.7877
 5111TIP3   OH242255   0.080   3.224   7.066 -0.5457  0.1933  0.4588
 5111TIP3    H142256   0.087   3.130   0.011  0.0496  0.1778  0.1425
 5111TIP3    H242257   8.523   3.245   0.013 -1.1292 -0.7715 -1.1289
 5112TIP3   OH242258   3.461   0.018   5.701 -0.3076 -0.1204  0.1638
 5112TIP3    H142259   3.446   8.469   5.744  1.6024 -1.0675 -0.9272
 5112TIP3    H242260   3.526   0.061   5.756  1.0995 -0.7411 -0.9817
 5113TIP3   OH242261   2.726   2.114   6.618 -0.3484  0.4787 -0.4562
 5113TIP3    H142262   2.766   2.062   6.548 -0.1593  2.1155 -1.6145
 5113TIP3    H242263   2.705   2.050   6.686 -1.0860 -1.2681 -2.2404
 5114TIP3   OH242264   2.160   0.985   0.718 -0.3626 -0.1047  0.2631
 5114TIP3    H142265   2.250   0.980   0.685 -0.0869 -1.1529  1.1061
 5114TIP3    H242266   2.169   1.001   0.812 -1.0347 -0.5904  0.4194
 5115TIP3   OH242267   2.238   4.012   6.036  0.2995  0.1244 -0.0522
 5115TIP3    H142268   2.311   3.972   5.989  0.4859  0.2841  0.0998
 5115TIP3    H242269   2.265   4.010   6.128 -0.1824 -0.4360  0.0804
 5116TIP3   OH242270   7.023   0.158   5.988  0.1797  0.3258  0.0611
 5116TIP3    H142271   6.957   0.109   6.037 -0.5290  0.7025 -0.5003
 5116TIP3    H242272   6.973   0.213   5.928  0.9890  1.2709  0.2341
 5117TIP3   OH242273   0.779   3.179   5.840 -0.1050  0.8629  0.0395
 5117TIP3    H142274   0.722   3.104   5.824  0.9832 -0.0033  0.1512
 5117TIP3    H242275   0.868   3.144   5.837  0.3810  1.8475  1.5850
 5118TIP3   OH242276   2.867   2.427   6.412  0.2047  0.7083  0.2924
 5118TIP3    H142277   2.867   2.521   6.428  0.3068  0.5991  0.9624
 5118TIP3    H242278   2.939   2.413   6.350 -0.3842  1.1759 -0.5237
 5119TIP3   OH242279   4.282   2.175   5.751  0.6907  0.0556 -0.0507
 5119TIP3    H142280   4.326   2.171   5.666 -0.1489 -0.0907 -0.4996
 5119TIP3    H242281   4.328   2.243   5.800  0.7842  0.5886 -0.8622
 5120TIP3   OH242282   0.692   1.214   1.301  0.7534  0.5271 -0.2111
 5120TIP3    H142283   0.654   1.132   1.268 -1.3129  1.3771 -0.1116
 5120TIP3    H242284   0.786   1.200   1.297  0.4747 -2.4009  1.2059
 5121TIP3   OH242285   1.878   3.980   5.274  0.2792 -0.7702 -0.0377
 5121TIP3    H142286   1.914   4.027   5.198  0.4797 -2.7758 -1.2751
 5121TIP3    H242287   1.921   4.020   5.350 -1.2274  2.5096 -0.7429
 5122TIP3   OH242288   4.627   4.617   6.339 -0.4248 -0.5523 -0.0427
 5122TIP3    H142289   4.643   4.526   6.317  0.0201 -0.1968 -1.2203
 5122TIP3    H242290   4.674   4.668   6.273 -2.3940  0.5368 -0.7136
 5123TIP3   OH242291   0.979   8.003   6.448 -0.3474 -0.1946 -0.0976
 5123TIP3    H142292   0.938   7.935   6.394  0.2415 -1.6843  1.2618
 5123TIP3    H242293   0.990   7.962   6.534  2.7283  0.5694 -0.0310
 5124TIP3   OH242294   8.072   1.939   0.033  0.3315  0.0317 -0.3008
 5124TIP3    H142295   8.101   1.949   7.013  0.4738 -2.6247 -0.6295
 5124TIP3    H242296   8.061   1.845   0.044  0.9033  0.2158  2.6309
 5125TIP3   OH242297   2.819   1.153   0.117  0.0387  0.2075 -0.2723
 5125TIP3    H142298   2.910   1.125   0.125 -0.3293 -1.0200 -0.2317
 5125TIP3    H242299   2.824   1.249   0.121  1.2855  0.1546  0.1186
 5126TIP3   OH242300   7.263   1.928   6.460  0.2249  0.6276 -0.1825
 5126TIP3    H142301   7.267   1.934   6.365  0.2741 -2.0292 -0.4309
 5126TIP3    H242302   7.355   1.924   6.488  0.1973 -0.2405 -0.1968
 5127TIP3   OH242303   0.379   0.310   5.471 -0.3056 -0.3980 -0.3066
 5127TIP3    H142304   0.373   0.391   5.421 -0.7624 -0.1176  0.1956
 5127TIP3    H242305   0.427   0.250   5.414  1.3195  0.6583 -0.1408
 5128TIP3   OH242306   4.546   5.926   7.021 -0.2508 -0.1720  0.1514
 5128TIP3    H142307   4.614   5.891   0.008 -2.2560 -3.1143  0.9645
 5128TIP3    H242308   4.466   5.882   7.049 -2.2591  1.9704 -1.7626
 5129TIP3   OH242309   5.126   6.316   5.708  0.3676  0.7076 -0.7347
 5129TIP3    H142310   5.196   6.300   5.644  2.1283 -1.4197  1.5325
 5129TIP3    H242311   5.093   6.229   5.730 -0.2056  1.3600  1.1985
 5130TIP3   OH242312   2.449   8.042   1.328 -0.1002  0.2958 -0.0386
 5130TIP3    H142313   2.454   8.136   1.311 -0.7301  0.7842  2.1868
 5130TIP3    H242314   2.508   8.027   1.401  0.2949 -1.1452 -0.6111
 5131TIP3   OH242315   6.279   3.970   6.620 -0.1914 -0.6980  0.1755
 5131TIP3    H142316   6.322   3.885   6.615  0.4121 -0.3893  0.0127
 5131TIP3    H242317   6.241   3.972   6.707  0.4836 -0.8160  0.4812
 5132TIP3   OH242318   2.227   8.478   0.835  0.5090  0.7614 -0.0922
 5132TIP3    H142319   2.169   0.018   0.820  1.4473  1.7441  0.9894
 5132TIP3    H242320   2.195   8.440   0.918  1.0149  0.9212  0.1755
 5133TIP3   OH242321   0.866   0.987   6.534 -0.2811  0.3527  0.0896
 5133TIP3    H142322   0.927   1.042   6.582  0.8098  0.1029 -0.9555
 5133TIP3    H242323   0.818   0.940   6.602 -0.0040  1.2731  0.9555
 5134TIP3   OH242324   2.183   1.790   0.948  0.3522 -0.2367  0.9222
 5134TIP3    H142325   2.140   1.857   1.000  1.4197 -0.9859  2.8953
 5134TIP3    H242326   2.113   1.729   0.925 -0.2295  0.3806  1.0213
 5135TIP3   OH242327   0.757   6.684   0.142 -0.7853 -0.1846 -0.1743
 5135TIP3    H142328   0.810   6.762   0.159  0.5631 -0.6923 -1.7935
 5135TIP3    H242329   0.678   6.716   0.099 -0.1369  0.2851 -1.0377
 5136TIP3   OH242330   5.871   6.269   1.479 -0.0420 -0.1418 -0.1226
 5136TIP3    H142331   5.841   6.213   1.407 -0.9115  0.5071 -0.2892
 5136TIP3    H242332   5.917   6.341   1.435 -0.2996  0.0912 -0.0163
 5137TIP3   OH242333   0.813   6.810   6.855  0.0277 -0.3215  0.6853
 5137TIP3    H142334   0.741   6.790   6.915 -0.1003 -2.3306 -0.0447
 5137TIP3    H242335   0.836   6.725   6.817  1.4896  0.5826 -0.5493
 5138TIP3   OH242336   7.534   7.972   0.196 -0.0535 -0.5727 -0.1359
 5138TIP3    H142337   7.507   7.881   0.201 -0.2826 -0.4934  0.0868
 5138TIP3    H242338   7.577   7.989   0.280 -0.5658 -0.3010  0.0762
 5139TIP3   OH242339   6.588   0.299   0.108  0.1776  0.2778 -0.1072
 5139TIP3    H142340   6.564   0.207   0.116  0.4820  0.1008 -1.1136
 5139TIP3    H242341   6.682   0.301   0.126  0.2267  0.3460 -0.3659
 5140TIP3   OH242342   6.675   7.128   5.721 -0.0337  0.7245 -0.5250
 5140TIP3    H142343   6.678   7.222   5.708 -1.3193  0.8933  0.2317
 5140TIP3    H242344   6.583   7.105   5.711  0.0772 -0.2565  0.4542
 5141TIP3   OH242345   8.399   8.290   1.203 -0.0018 -0.4594 -0.0443
 5141TIP3    H142346   8.425   8.352   1.271 -1.6398  0.1631  0.0442
 5141TIP3    H242347   8.307   8.310   1.185  0.0830 -1.3352 -1.6687
 5142TIP3   OH242348   2.340   6.670   5.485  0.3541 -0.4302  0.6308
 5142TIP3    H142349   2.428   6.635   5.470 -0.1544 -0.7939 -1.9823
 5142TIP3    H242350   2.352   6.765   5.486  0.6499 -0.4040 -1.2507
 5143TIP3   OH242351   4.105   5.030   5.541 -0.5069 -0.0647  0.1713
 5143TIP3    H142352   4.146   5.099   5.488  0.2796  0.6721  1.6788
 5143TIP3    H242353   4.011   5.042   5.526 -0.4858  2.2870  1.4486
 5144TIP3   OH242354   8.128   2.108   0.751  0.5398  0.0720  0.6744
 5144TIP3    H142355   8.119   2.200   0.728  0.8805 -0.5505 -2.3603
 5144TIP3    H242356   8.039   2.080   0.775 -0.3054  0.4231 -1.8155
 5145TIP3   OH242357   3.850   5.200   1.165 -0.2696  0.1546  0.2926
 5145TIP3    H142358   3.820   5.137   1.100 -0.5185  1.1326 -0.5594
 5145TIP3    H242359   3.797   5.182   1.243 -2.0923  0.9158 -0.7230
 5146TIP3   OH242360   3.229   0.449   0.152  0.2797 -0.7770  0.0494
 5146TIP3    H142361   3.232   0.362   0.192 -0.3175 -0.3927  0.9653
 5146TIP3    H242362   3.321   0.471   0.135  0.5230 -1.1323  0.8484
 5147TIP3   OH242363   6.389   0.617   0.738 -0.5756 -0.0387  0.2409
 5147TIP3    H142364   6.329   0.614   0.663 -0.6786  1.7345  0.2063
 5147TIP3    H242365   6.333   0.639   0.813 -0.1163  0.7865  0.3572
 5148TIP3   OH242366   6.479   1.939   7.050 -0.3495 -0.0195  0.1169
 5148TIP3    H142367   6.403   1.884   7.071  0.9374 -2.6120 -1.5602
 5148TIP3    H242368   6.441   2.019   7.015 -2.3736 -1.6530 -1.7057
 5149TIP3   OH242369   5.655   3.156   0.379  0.2206 -0.0765 -0.0650
 5149TIP3    H142370   5.719   3.228   0.376  1.1025 -0.8906 -1.3982
 5149TIP3    H242371   5.652   3.132   0.472  1.5665  0.2322  0.0839
 5150TIP3   OH242372   2.699   3.937   5.340  0.5162  0.0913  0.1135
 5150TIP3    H142373   2.608   3.953   5.317  0.0589 -2.2852  0.0959
 5150TIP3    H242374   2.700   3.937   5.436  0.9674  2.2160  0.1757
 5151TIP3   OH242375   3.246   8.280   0.196 -0.0260  0.4474  0.2287
 5151TIP3    H142376   3.224   8.219   0.267 -0.3084 -0.1420 -0.3559
 5151TIP3    H242377   3.271   8.361   0.241 -1.9798  0.6956  0.9725
 5152TIP3   OH242378   4.985   3.672   6.413 -0.2081 -0.0110  0.0778
 5152TIP3    H142379   5.055   3.656   6.476 -0.5503  0.7313  0.6624
 5152TIP3    H242380   4.946   3.585   6.399 -1.2265  0.0151  2.2152
 5153TIP3   OH242381   8.331   2.580   5.776  0.1064  0.0464  0.1010
 5153TIP3    H142382   8.261   2.528   5.817 -1.4743  1.5596 -0.5637
 5153TIP3    H242383   8.315   2.572   5.682  0.0155  1.4579 -0.0213
 5154TIP3   OH242384   3.905   1.651   0.796  0.0613  0.4818  0.0512
 5154TIP3    H142385   3.828   1.709   0.798 -0.3605 -0.0646 -0.3369
 5154TIP3    H242386   3.939   1.655   0.886  0.0722  1.3788  0.0167
 5155TIP3   OH242387   6.390   3.553   5.580  0.0986 -0.0798 -0.5474
 5155TIP3    H142388   6.328   3.503   5.526  0.2003 -0.4214 -0.3508
 5155TIP3    H242389   6.443   3.601   5.516  0.3859 -0.6767 -0.7702
 5156TIP3   OH242390   3.328   1.236   6.773 -0.2366  0.4413  0.2195
 5156TIP3    H142391   3.285   1.304   6.825 -0.3907 -0.0858  0.7993
 5156TIP3    H242392   3.271   1.226   6.697  0.0857  1.3477 -0.1544
 5157TIP3   OH242393   6.209   2.588   1.883  0.0011 -0.3805  0.2733
 5157TIP3    H142394   6.244   2.656   1.940 -0.1308 -0.5924  0.6142
 5157TIP3    H242395   6.218   2.623   1.794 -1.8703  0.9171  0.5487
 5158TIP3   OH242396   4.085   1.081   6.719 -0.6189 -0.4026  0.6244
 5158TIP3    H142397   4.053   1.031   6.794  0.1652  1.0688  1.9894
 5158TIP3    H242398   4.042   1.166   6.727  0.0404  0.0160 -0.1882
 5159TIP3   OH242399   1.651   7.623   1.404 -0.2255  0.3180  0.4517
 5159TIP3    H142400   1.573   7.568   1.399  0.0009 -0.0619  0.9469
 5159TIP3    H242401   1.627   7.703   1.358  0.1844 -1.0212 -2.3118
 5160TIP3   OH242402   4.045   7.874   0.964  0.6041  0.1711  0.1262
 5160TIP3    H142403   3.976   7.881   1.031  2.1827  2.6195  1.6829
 5160TIP3    H242404   4.007   7.913   0.886 -1.1808 -2.4655 -0.4303
 5161TIP3   OH242405   5.456   0.670   0.735 -0.0103 -0.0610  0.5342
 5161TIP3    H142406   5.545   0.692   0.707 -0.7582  1.4356 -0.8829
 5161TIP3    H242407   5.420   0.753   0.766 -1.2927 -0.3703 -0.0572
 5162TIP3   OH242408   1.777   7.515   5.796 -0.1371 -0.4839 -0.0980
 5162TIP3    H142409   1.802   7.441   5.741  2.3042  0.7298 -0.7647
 5162TIP3    H242410   1.765   7.588   5.735  0.9254  0.4758  0.7766
 5163TIP3   OH242411   3.735   1.969   0.394  0.0454  0.0571 -0.5056
 5163TIP3    H142412   3.828   1.985   0.410 -0.1978  1.9518 -0.7544
 5163TIP3    H242413   3.692   1.999   0.474 -0.4240  0.1097 -0.7786
 5164TIP3   OH242414   7.460   5.430   5.319  0.3362 -0.1177 -0.5211
 5164TIP3    H142415   7.482   5.429   5.226 -2.3584  2.0794 -1.2999
 5164TIP3    H242416   7.447   5.522   5.340 -0.4523 -0.6715  1.7059
 5165TIP3   OH242417   0.563   3.574   6.377 -0.3303  0.1641 -0.3750
 5165TIP3    H142418   0.480   3.535   6.351  0.1215 -0.8391 -0.3628
 5165TIP3    H242419   0.586   3.633   6.305 -0.2823 -0.7521 -1.1314
 5166TIP3   OH242420   6.901   0.399   0.060  0.2790  0.0480  0.1449
 5166TIP3    H142421   6.839   0.465   0.091 -0.6149 -1.4967  1.7835
 5166TIP3    H242422   6.930   0.354   0.139  1.2269 -1.2204 -0.8924
 5167TIP3   OH242423   6.189   4.947   5.981  0.1967  0.2907 -0.1222
 5167TIP3    H142424   6.222   4.971   6.067 -1.2994  0.4483  0.4420
 5167TIP3    H242425   6.267   4.940   5.926  1.0012  4.4362  0.1593
 5168TIP3   OH242426   1.962   7.610   0.991  0.1996  0.2506  0.4935
 5168TIP3    H142427   2.038   7.554   1.010  1.9654  1.5104 -2.1310
 5168TIP3    H242428   1.947   7.658   1.072  3.2069  0.9659  0.7524
 5169TIP3   OH242429   5.200   3.666   0.152  0.0761  0.1981 -0.0764
 5169TIP3    H142430   5.243   3.581   0.161 -0.5451 -0.0387  0.7441
 5169TIP3    H242431   5.128   3.663   0.215 -0.0666  1.2611 -0.1809
 5170TIP3   OH242432   2.073   2.740   0.552  0.3803 -0.0264 -0.6263
 5170TIP3    H142433   2.134   2.814   0.546 -0.1692  0.6187  1.2308
 5170TIP3    H242434   2.016   2.750   0.476 -0.3681  2.1026  0.1585
 5171TIP3   OH242435   1.547   0.610   0.573  0.0124  0.1010 -0.0126
 5171TIP3    H142436   1.472   0.582   0.625 -1.2434  0.5814 -1.4559
 5171TIP3    H242437   1.552   0.705   0.587 -0.3021  0.2246 -0.6989
 5172TIP3   OH242438   3.463   0.003   1.363 -0.6882 -0.1163 -0.4302
 5172TIP3    H142439   3.543   0.018   1.413 -1.3296 -0.7899  0.8347
 5172TIP3    H242440   3.432   0.091   1.341 -0.8912  0.2560  1.1988
 5173TIP3   OH242441   0.999   3.165   6.073  0.5004 -0.6244  0.1474
 5173TIP3    H142442   1.005   3.116   5.991 -0.3552 -0.3999 -0.0675
 5173TIP3    H242443   1.063   3.125   6.131  1.0662 -0.8337 -0.6092
 5174TIP3   OH242444   2.263   7.246   1.959 -0.2306  0.1719  0.2301
 5174TIP3    H142445   2.253   7.151   1.965  0.6260  0.1590  2.6510
 5174TIP3    H242446   2.180   7.281   1.991  0.9496  0.1247  3.7694
 5175TIP3   OH242447   7.747   1.712   1.610  0.9233 -0.1955  0.1898
 5175TIP3    H142448   7.699   1.663   1.677  1.1142 -0.2244  0.3069
 5175TIP3    H242449   7.832   1.668   1.605 -0.0396 -2.0308 -2.1069
 5176TIP3   OH242450   7.709   4.370   0.610  0.4980  0.2523 -0.2623
 5176TIP3    H142451   7.795   4.350   0.572  0.4569  2.4681 -1.6632
 5176TIP3    H242452   7.698   4.464   0.597 -1.7671  0.1870  0.7180
 5177TIP3   OH242453   2.433   0.759   6.711  0.5322  0.5100 -0.2902
 5177TIP3    H142454   2.371   0.699   6.751  2.6876 -1.2565  0.5726
 5177TIP3    H242455   2.509   0.758   6.769  2.4906  0.4001 -2.7209
 5178TIP3   OH242456   6.271   4.663   0.241 -0.5741  0.3423 -0.6669
 5178TIP3    H142457   6.303   4.664   0.331 -2.3656  0.8220  0.0039
 5178TIP3    H242458   6.265   4.571   0.218  0.1773  0.2247 -0.4036
 5179TIP3   OH242459   0.752   8.278   1.398  0.0550 -0.2662  0.5750
 5179TIP3    H142460   0.843   8.299   1.376 -0.1112  0.9255  0.9789
 5179TIP3    H242461   0.699   8.338   1.346 -0.4622 -0.1266  1.2453
 5180TIP3   OH242462   2.150   1.625   6.620  0.0092  0.3999 -0.5101
 5180TIP3    H142463   2.241   1.633   6.648 -0.1755  1.6257 -0.2203
 5180TIP3    H242464   2.107   1.576   6.691  0.3265  0.2797 -0.4009
 5181TIP3   OH242465   7.356   3.964   0.444 -0.3759 -0.4878 -0.3249
 5181TIP3    H142466   7.360   3.877   0.484  0.0802 -0.6741 -0.7670
 5181TIP3    H242467   7.434   4.009   0.476 -0.1959 -0.5152 -0.7151
 5182TIP3   OH242468   7.137   7.161   0.635 -0.4903 -0.3143 -0.3613
 5182TIP3    H142469   7.200   7.089   0.633 -1.1025 -0.8704  0.1366
 5182TIP3    H242470   7.059   7.126   0.592 -0.4321  0.4155 -1.0982
 5183TIP3   OH242471   7.811   5.099   7.068 -0.0481 -0.1657  0.3850
 5183TIP3    H142472   7.861   5.110   6.988 -0.4117  0.1757  0.1980
 5183TIP3    H242473   7.781   5.008   7.066 -0.3949 -0.0453 -0.0716
 5184TIP3   OH242474   8.223   6.377   6.440 -0.2540  0.4282 -0.1538
 5184TIP3    H142475   8.199   6.309   6.377 -1.9375  1.1144 -0.2883
 5184TIP3    H242476   8.179   6.351   6.522  0.4261  0.5052  0.2460
 5185TIP3   OH242477   8.386   3.420   6.674  0.3097 -0.2558 -0.0662
 5185TIP3    H142478   8.291   3.429   6.671  0.1391  0.4506  3.2949
 5185TIP3    H242479   8.400   3.331   6.708  0.7572  0.1414  0.8212
 5186TIP3   OH242480   7.321   0.515   5.999  0.5742  0.2948 -1.2909
 5186TIP3    H142481   7.298   0.478   5.914  0.6909  0.0191 -1.2033
 5186TIP3    H242482   7.272   0.463   6.062  2.3161 -1.0948 -1.0041
 5187TIP3   OH242483   7.925   2.862   0.104  0.5604  0.4037  0.4954
 5187TIP3    H142484   7.905   2.939   0.051 -0.1907  0.5776  1.0169
 5187TIP3    H242485   7.890   2.788   0.053  1.6493  0.3418 -0.2030
 5188TIP3   OH242486   1.923   5.795   4.999 -0.4471 -0.5586 -0.0284
 5188TIP3    H142487   2.009   5.829   5.024 -0.7151  1.4545 -1.6057
 5188TIP3    H242488   1.938   5.702   4.982  1.0749 -0.5672  1.1343
 5189TIP3   OH242489   5.122   7.346   0.076 -0.5193 -0.3239  0.3326
 5189TIP3    H142490   5.211   7.365   0.046 -0.3423 -0.4528  0.7680
 5189TIP3    H242491   5.086   7.287   0.009  0.3690 -1.7573  1.0688
 5190TIP3   OH242492   5.991   7.832   0.721 -0.5639  0.3100  0.3228
 5190TIP3    H142493   5.957   7.889   0.653  1.1086  1.2182  0.1803
 5190TIP3    H242494   6.047   7.770   0.674 -0.3944  0.1548  0.7239
 5191TIP3   OH242495   8.455   6.794   6.704 -0.1833 -0.0940 -0.1034
 5191TIP3    H142496   8.534   6.750   6.675 -0.2623 -0.6670  0.5445
 5191TIP3    H242497   8.410   6.730   6.759 -0.6174  0.5634  0.3198
 5192TIP3   OH242498   4.596   4.889   0.405  0.1497 -0.4739  0.2078
 5192TIP3    H142499   4.532   4.832   0.448 -0.6697  0.8831  0.8576
 5192TIP3    H242500   4.681   4.852   0.428 -0.2981 -0.3279  2.2545
 5193TIP3   OH242501   1.776   3.508   6.193 -0.3588  0.0063 -0.1262
 5193TIP3    H142502   1.815   3.429   6.155  2.8952  0.8906  1.0399
 5193TIP3    H242503   1.772   3.570   6.121  0.7582 -0.0022 -0.2040
 5194TIP3   OH242504   0.798   0.011   6.621 -0.0362 -0.4697  0.2273
 5194TIP3    H142505   0.715   8.518   6.583 -0.4643 -0.1870  0.9294
 5194TIP3    H242506   0.844   8.465   6.643 -0.1004 -0.6263 -0.2064
 5195TIP3   OH242507   0.423   1.428   6.892 -0.6342 -0.6433  0.6022
 5195TIP3    H142508   0.488   1.437   6.962  0.9230 -0.2707 -0.8181
 5195TIP3    H242509   0.339   1.447   6.933  0.4521  1.6059  1.9158
 5196TIP3   OH242510   5.896   1.180   6.509 -0.3615  0.1817 -0.2711
 5196TIP3    H142511   5.816   1.139   6.541 -1.4134  1.3506 -1.2892
 5196TIP3    H242512   5.941   1.209   6.589 -1.3412  0.2159  0.2862
 5197TIP3   OH242513   1.088   5.907   6.304  0.2215  0.2909  0.3276
 5197TIP3    H142514   1.124   5.954   6.229 -1.7202  3.4072  1.1477
 5197TIP3    H242515   1.150   5.925   6.375  0.9494 -0.8721  0.0161
 5198TIP3   OH242516   6.465   0.586   5.565  0.4913  0.0856  0.0365
 5198TIP3    H142517   6.542   0.551   5.612 -0.2880  1.1769  2.2901
 5198TIP3    H242518   6.401   0.516   5.569  0.5935 -0.0000  0.2027
 5199TIP3   OH242519   0.459   6.189   1.750  0.0551 -0.5257  0.0361
 5199TIP3    H142520   0.424   6.109   1.788  0.6166 -0.2207  1.2359
 5199TIP3    H242521   0.387   6.223   1.696 -0.3233 -1.6131 -0.1676
 5200TIP3   OH242522   0.782   7.581   0.932 -0.3124  0.3516  0.7571
 5200TIP3    H142523   0.730   7.510   0.893  0.8304 -1.3497  2.2071
 5200TIP3    H242524   0.726   7.617   1.001 -0.3536 -0.0955  0.9571
 5201TIP3   OH242525   2.332   1.320   0.892  0.0593  0.2959  0.0876
 5201TIP3    H142526   2.353   1.411   0.910 -2.7953  1.0888 -0.1534
 5201TIP3    H242527   2.237   1.319   0.879 -0.3507 -3.0168  2.1016
 5202TIP3   OH242528   2.075   7.324   6.649  0.2947 -0.3955 -0.1933
 5202TIP3    H142529   2.119   7.396   6.604  1.6586 -0.7425  0.4955
 5202TIP3    H242530   2.096   7.246   6.597 -0.2217 -0.4546 -0.3182
 5203TIP3   OH242531   1.185   6.331   6.922 -0.0468 -0.0104 -0.0957
 5203TIP3    H142532   1.206   6.262   6.985 -0.5793  0.9728  1.2049
 5203TIP3    H242533   1.106   6.299   6.877 -0.0800 -0.3998  0.2319
 5204TIP3   OH242534   2.394   3.991   5.545 -0.1063  0.1180  0.2819
 5204TIP3    H142535   2.380   4.067   5.602 -1.7637 -0.4794  0.7107
 5204TIP3    H242536   2.489   3.980   5.544  0.0512  1.0429  1.7534
 5205TIP3   OH242537   3.884   7.464   5.325 -0.1392  0.4187  0.1802
 5205TIP3    H142538   3.853   7.551   5.300 -0.1005  0.3987  0.0624
 5205TIP3    H242539   3.860   7.408   5.250  0.8022  0.5336 -0.2145
 5206TIP3   OH242540   5.769   4.435   1.276 -0.2386 -0.0906 -0.1495
 5206TIP3    H142541   5.727   4.479   1.350  1.0258 -0.6302  0.9227
 5206TIP3    H242542   5.747   4.342   1.287  0.9515 -0.3427  0.2650
 5207TIP3   OH242543   6.362   8.081   0.309 -0.0197 -0.1786  0.9237
 5207TIP3    H142544   6.402   8.000   0.277 -0.3525 -0.3319  0.8800
 5207TIP3    H242545   6.434   8.142   0.320  0.0201  0.2171 -1.1002
 5208TIP3   OH242546   2.632   3.468   0.113  0.1628 -0.9596 -0.1721
 5208TIP3    H142547   2.616   3.449   0.206  0.5891 -0.2534  0.0472
 5208TIP3    H242548   2.679   3.551   0.113  0.3216 -1.0445 -1.0164
 5209TIP3   OH242549   7.046   1.611   0.306  0.1790  0.5305 -0.5653
 5209TIP3    H142550   6.998   1.547   0.253 -1.5400  1.4865 -0.2293
 5209TIP3    H242551   7.129   1.622   0.260  0.0343 -1.0502 -1.2721
 5210TIP3   OH242552   6.522   3.611   0.760 -0.1960 -0.3862  0.0499
 5210TIP3    H142553   6.480   3.532   0.724  1.5401 -2.2125  1.7745
 5210TIP3    H242554   6.601   3.578   0.803  0.4346  2.2967  1.1225
 5211TIP3   OH242555   1.613   2.800   1.555 -0.5847 -0.1971 -0.1824
 5211TIP3    H142556   1.522   2.770   1.557 -0.8650  0.6552  0.3218
 5211TIP3    H242557   1.662   2.730   1.599 -0.8668 -1.0227 -1.1394
 5212TIP3   OH242558   7.598   4.308   5.654 -0.1235  0.7452 -1.1677
 5212TIP3    H142559   7.502   4.305   5.652 -0.1512  0.5046 -0.1318
 5212TIP3    H242560   7.625   4.260   5.576 -0.8652 -2.0186  0.1233
 5213TIP3   OH242561   5.311   4.267   1.436 -0.4615 -0.0490  0.9010
 5213TIP3    H142562   5.312   4.358   1.408  1.9005  0.0503  1.1077
 5213TIP3    H242563   5.264   4.221   1.366 -0.2374  1.0722 -0.0203
 5214TIP3   OH242564   1.853   4.055   5.733 -0.2965 -0.3608 -0.0799
 5214TIP3    H142565   1.794   4.042   5.808  0.0173  2.4799  0.7674
 5214TIP3    H242566   1.937   4.079   5.772 -0.2803  1.7858 -1.2700
 5215TIP3   OH242567   2.134   7.376   5.982 -0.4560 -0.1085  0.4550
 5215TIP3    H142568   2.048   7.336   5.968  0.5060 -1.9116 -0.6725
 5215TIP3    H242569   2.196   7.317   5.939  1.2647  1.6961  0.2822
 5216TIP3   OH242570   3.326   6.085   6.340 -0.0526  0.2579 -0.5670
 5216TIP3    H142571   3.387   6.103   6.269  1.2156  1.3449  0.7387
 5216TIP3    H242572   3.254   6.146   6.326 -1.5570 -1.8387 -2.8019
 5217TIP3   OH242573   3.307   2.889   0.215 -0.5555 -0.0513  0.4830
 5217TIP3    H142574   3.347   2.817   0.263 -0.7679  0.1160  0.9183
 5217TIP3    H242575   3.307   2.962   0.277  3.4293  1.6632 -1.1115
 5218TIP3   OH242576   6.517   5.203   0.344 -0.4145 -0.0669  0.2741
 5218TIP3    H142577   6.563   5.280   0.377 -1.2092  1.2389 -1.4885
 5218TIP3    H242578   6.425   5.218   0.366 -0.7184  0.0167 -0.9608
 5219TIP3   OH242579   7.142   7.818   6.987 -0.5164  0.0221 -0.4800
 5219TIP3    H142580   7.049   7.827   6.969 -0.4023 -1.0921 -1.8167
 5219TIP3    H242581   7.183   7.810   6.900  0.8348  0.5763  0.0763
 5220TIP3   OH242582   0.315   6.612   7.039  0.2581 -0.1587  0.4341
 5220TIP3    H142583   0.291   6.671   0.039 -1.1520 -2.1414  1.7139
 5220TIP3    H242584   0.233   6.597   6.991  1.0143  0.5022 -1.1527
 5221TIP3   OH242585   0.007   5.723   0.327  0.1429  0.6087 -0.5503
 5221TIP3    H142586   8.495   5.769   0.258 -1.7097  3.3692  2.2734
 5221TIP3    H242587   0.094   5.764   0.327  0.8215 -0.7208 -2.3247
 5222TIP3   OH242588   8.097   3.840   2.227  0.3203 -0.6004 -0.3912
 5222TIP3    H142589   8.189   3.834   2.199  0.8375 -0.1866  1.1576
 5222TIP3    H242590   8.099   3.827   2.321 -0.8496  2.4488  0.1553
 5223TIP3   OH242591   8.375   4.907   1.006 -0.9723  0.1153  0.2294
 5223TIP3    H142592   8.382   4.941   0.917 -0.4185 -1.2207 -0.2585
 5223TIP3    H242593   8.394   4.813   0.998  0.5374  0.2185  1.9514
 5224TIP3   OH242594   2.085   0.513   5.548 -0.1904 -0.4115  0.6661
 5224TIP3    H142595   2.126   0.434   5.582  0.0355 -0.5760  0.0180
 5224TIP3    H242596   2.157   0.574   5.536 -0.1840 -0.5654 -0.0960
 5225TIP3   OH242597   3.842   3.331   6.090  0.1880  0.2850 -0.0966
 5225TIP3    H142598   3.882   3.331   6.178  0.9770 -0.2645 -0.4406
 5225TIP3    H242599   3.771   3.268   6.096 -1.4810  2.1506  0.8709
 5226TIP3   OH242600   5.867   0.157   7.062  0.2759  0.8737  0.3363
 5226TIP3    H142601   5.891   0.064   7.060 -2.6298 -0.0565  1.8950
 5226TIP3    H242602   5.897   0.191   6.978  1.4275 -1.4803 -0.2991
 5227TIP3   OH242603   6.459   8.401   5.543  0.3259  0.2750  0.2380
 5227TIP3    H142604   6.528   8.372   5.603 -1.2954 -1.6814  1.2651
 5227TIP3    H242605   6.496   8.386   5.456  0.9987 -1.4116  0.7637
 5228TIP3   OH242606   5.907   8.149   0.177 -0.9939 -0.0424 -0.2109
 5228TIP3    H142607   5.837   8.098   0.137 -0.5653 -0.9908  0.2308
 5228TIP3    H242608   5.871   8.179   0.261 -0.6441 -1.1451  0.3543
 5229TIP3   OH242609   4.099   6.236   6.144  0.2721  0.0041 -0.0195
 5229TIP3    H142610   4.068   6.199   6.227  0.5370 -0.1810 -0.0034
 5229TIP3    H242611   4.035   6.303   6.123  0.4032  0.3041  0.5235
 5230TIP3   OH242612   0.524   1.183   0.361 -0.6875  0.4584  0.0631
 5230TIP3    H142613   0.466   1.212   0.291  1.2131  1.7252 -1.0660
 5230TIP3    H242614   0.549   1.094   0.336 -0.8693  0.5088 -0.3051
 5231TIP3   OH242615   3.967   4.826   0.080 -0.4032 -0.0685 -0.0088
 5231TIP3    H142616   4.058   4.831   0.108 -0.1437  0.1819 -0.8564
 5231TIP3    H242617   3.940   4.737   0.101  0.5080 -0.6361 -1.0934
 5232TIP3   OH242618   4.193   1.610   6.164 -0.4657  0.1517  0.6308
 5232TIP3    H142619   4.156   1.691   6.130 -0.6581 -0.6388 -1.1148
 5232TIP3    H242620   4.129   1.542   6.140  0.9910 -0.9070 -0.4045
 5233TIP3   OH242621   6.449   2.203   5.875 -0.2911  0.1848  0.2069
 5233TIP3    H142622   6.367   2.220   5.828  0.0304 -0.3924 -0.5857
 5233TIP3    H242623   6.421   2.179   5.964 -1.1567 -2.2041 -0.6217
 5234TIP3   OH242624   2.212   6.141   6.565 -0.0002 -0.2352  0.8400
 5234TIP3    H142625   2.153   6.215   6.552 -0.2528 -0.7817 -1.8100
 5234TIP3    H242626   2.171   6.069   6.517  1.1413 -1.5852  1.8049
 5235TIP3   OH242627   4.881   6.738   5.568  0.4729  0.6711  0.0329
 5235TIP3    H142628   4.970   6.745   5.534  0.5109 -0.3545 -0.1005
 5235TIP3    H242629   4.890   6.746   5.663  0.8172 -0.2934  0.0891
 5236TIP3   OH242630   8.243   2.850   6.863  0.7449  0.7917 -0.4855
 5236TIP3    H142631   8.273   2.762   6.842 -1.4967 -0.5571  1.4086
 5236TIP3    H242632   8.212   2.886   6.780  0.9127 -0.5336 -1.1403
 5237TIP3   OH242633   1.578   1.739   6.085  0.4204 -0.4218  0.7019
 5237TIP3    H142634   1.649   1.705   6.140  2.2327 -0.1885 -1.3224
 5237TIP3    H242635   1.596   1.702   5.998 -1.8986 -0.2236  0.0905
 5238TIP3   OH242636   4.300   3.036   1.034  0.4803  0.1411 -0.5813
 5238TIP3    H142637   4.361   3.056   0.963 -0.9060  1.0774 -1.5423
 5238TIP3    H242638   4.266   3.121   1.061  0.9143 -0.2091  1.1808
 5239TIP3   OH242639   8.254   5.956   5.672  0.0454 -0.1705  0.2524
 5239TIP3    H142640   8.338   5.916   5.650 -0.9034 -1.3064 -1.5104
 5239TIP3    H242641   8.193   5.924   5.605 -1.4388  1.9255  0.4811
 5240TIP3   OH242642   6.288   5.703   5.796  0.2259 -0.7837 -0.2426
 5240TIP3    H142643   6.287   5.655   5.879 -1.1789  0.1019  0.2997
 5240TIP3    H242644   6.353   5.772   5.809 -2.8668  2.0746  1.8784
 5241TIP3   OH242645   0.218   3.740   5.219  0.1219 -0.4367  0.1030
 5241TIP3    H142646   0.123   3.751   5.226  0.0859 -1.1736  0.9642
 5241TIP3    H242647   0.229   3.658   5.171  0.3530  0.5033 -1.5240
 5242TIP3   OH242648   8.226   4.627   6.773  0.4685  0.1443 -0.3194
 5242TIP3    H142649   8.303   4.670   6.811  2.0527 -2.1536 -0.7461
 5242TIP3    H242650   8.183   4.585   6.848 -0.2661  1.1816 -0.1283
 5243TIP3   OH242651   7.838   6.429   6.288  0.5974  0.3639  0.3676
 5243TIP3    H142652   7.760   6.373   6.290  0.7173  0.1277 -0.7829
 5243TIP3    H242653   7.907   6.374   6.251  0.2757  1.7126 -2.5048
 5244TIP3   OH242654   4.644   7.709   6.372  0.7361 -0.6621 -0.0586
 5244TIP3    H142655   4.725   7.722   6.421  1.0730 -0.0951 -0.7453
 5244TIP3    H242656   4.648   7.773   6.301 -0.4203 -0.4787  0.0177
 5245TIP3   OH242657   0.517   2.556   5.814  0.6799  0.2200 -0.8675
 5245TIP3    H142658   0.423   2.573   5.820  0.7797  0.3197  1.5555
 5245TIP3    H242659   0.529   2.516   5.728 -1.0636  2.9902 -2.5478
 5246TIP3   OH242660   7.537   2.513   5.900 -0.3884 -0.2264 -0.3341
 5246TIP3    H142661   7.457   2.559   5.872 -0.9129 -0.8084  0.1847
 5246TIP3    H242662   7.510   2.461   5.975  0.6303  0.0500  0.2461
 5247TIP3   OH242663   7.360   2.390   2.055 -0.3417 -0.3323 -0.0668
 5247TIP3    H142664   7.420   2.373   1.982  0.1299  0.1814  0.1920
 5247TIP3    H242665   7.377   2.481   2.079 -2.5728  0.4532 -1.2068
 5248TIP3   OH242666   3.218   1.405   0.782 -0.7728  0.3472  0.4445
 5248TIP3    H142667   3.286   1.350   0.821 -1.7391 -0.0616  1.6196
 5248TIP3    H242668   3.202   1.473   0.847 -0.7883  1.0281 -0.2593
 5249TIP3   OH242669   8.352   0.589   0.601 -0.4856  0.1028  0.0327
 5249TIP3    H142670   8.273   0.589   0.547 -0.7367  1.3462  0.3695
 5249TIP3    H242671   8.321   0.580   0.690 -0.1161 -1.1675  0.0534
 5250TIP3   OH242672   1.649   5.576   6.363  0.6409 -0.1695 -0.2107
 5250TIP3    H142673   1.582   5.584   6.430 -0.6697  0.7617 -1.5879
 5250TIP3    H242674   1.617   5.507   6.304  0.0074  1.4337 -1.8192
 5251TIP3   OH242675   6.727   6.784   5.548  0.1732 -0.2329 -0.2215
 5251TIP3    H142676   6.640   6.793   5.508 -0.8085  0.7917  1.9678
 5251TIP3    H242677   6.786   6.767   5.475 -1.8588 -0.8870 -1.7855
 5252TIP3   OH242678   4.253   0.277   6.278  0.3100  0.2415 -0.0268
 5252TIP3    H142679   4.178   0.218   6.273 -0.2997  1.0126 -0.1307
 5252TIP3    H242680   4.255   0.305   6.370  1.4193 -0.9667  0.3520
 5253TIP3   OH242681   6.710   5.602   6.771  0.2047  0.0151 -0.1275
 5253TIP3    H142682   6.646   5.665   6.805 -0.7906 -1.9221  1.8258
 5253TIP3    H242683   6.782   5.606   6.834 -0.4589 -1.6718  0.8077
 5254TIP3   OH242684   3.506   4.431   4.943  0.1758  0.3908  0.3623
 5254TIP3    H142685   3.601   4.425   4.946  0.3471  0.6692 -2.0525
 5254TIP3    H242686   3.477   4.344   4.916 -0.2438  0.3560  0.9061
 5255TIP3   OH242687   0.532   4.670   1.156  0.3842  0.1820 -0.0494
 5255TIP3    H142688   0.552   4.643   1.246 -0.5928  2.4320  0.9344
 5255TIP3    H242689   0.440   4.696   1.159  0.7690  1.9126 -1.2491
 5256TIP3   OH242690   3.212   6.657   0.416 -0.5815 -0.0296 -0.1379
 5256TIP3    H142691   3.207   6.568   0.449  0.6022  0.1255  0.5441
 5256TIP3    H242692   3.300   6.664   0.378 -0.3295  1.0665  0.5754
 5257TIP3   OH242693   5.792   2.943   1.318 -0.0644  0.5654  0.0828
 5257TIP3    H142694   5.832   3.014   1.268  3.0329 -1.7395 -1.0713
 5257TIP3    H242695   5.851   2.868   1.305 -2.2763 -1.8291  2.4501
 5258TIP3   OH242696   3.920   8.127   6.234  0.5408 -0.1995  0.0060
 5258TIP3    H142697   3.987   8.095   6.295  0.2393 -0.5910  0.1368
 5258TIP3    H242698   3.869   8.049   6.212 -1.8442  0.5336  2.3574
 5259TIP3   OH242699   1.189   8.444   6.023 -0.2829  0.0816 -0.1070
 5259TIP3    H142700   1.218   8.513   5.964  0.1406  0.2724  0.3083
 5259TIP3    H242701   1.225   8.470   6.109 -0.9346 -0.1542  0.2427
 5260TIP3   OH242702   6.439   4.199   0.340  0.5431 -0.6914  0.7851
 5260TIP3    H142703   6.534   4.214   0.339  0.2057  1.8606  1.0564
 5260TIP3    H242704   6.417   4.193   0.433  0.0100  2.5129  0.9632
 5261TIP3   OH242705   2.450   8.155   0.666 -0.7925  0.3641  0.3016
 5261TIP3    H142706   2.434   8.128   0.756  2.6150 -2.9230  0.1723
 5261TIP3    H242707   2.390   8.103   0.614 -1.2573  0.6473  0.5486
 5262TIP3   OH242708   7.699   4.128   6.148  0.1949  0.8081  0.1097
 5262TIP3    H142709   7.676   4.194   6.083 -1.6580  0.2349  0.1387
 5262TIP3    H242710   7.792   4.110   6.132  0.5461  2.8293 -0.3981
 5263TIP3   OH242711   1.665   4.435   6.710  0.0862  0.1174  0.0579
 5263TIP3    H142712   1.640   4.355   6.663  1.9442 -1.0873  1.0130
 5263TIP3    H242713   1.698   4.404   6.794  1.7695  1.8169  0.0784
 5264TIP3   OH242714   7.895   0.303   6.210  0.3395  0.6717 -0.1450
 5264TIP3    H142715   7.973   0.324   6.261 -0.4315  2.4114  0.3778
 5264TIP3    H242716   7.832   0.371   6.232 -1.6470 -1.1276  0.0706
 5265TIP3   OH242717   1.812   0.417   0.478 -0.4970 -0.1947  0.0140
 5265TIP3    H142718   1.722   0.404   0.448 -0.9806  0.1284  1.2698
 5265TIP3    H242719   1.819   0.361   0.556  0.3739 -0.1904 -0.0579
 5266TIP3   OH242720   8.484   7.430   6.026 -0.3313  0.2628 -0.6695
 5266TIP3    H142721   8.423   7.474   5.967 -0.3234 -1.0309 -1.7045
 5266TIP3    H242722   8.430   7.400   6.099 -0.8581 -0.4012 -1.3144
 5267TIP3   OH242723   0.992   4.538   0.962  0.4096 -0.5421  0.2062
 5267TIP3    H142724   1.001   4.487   0.881  0.4265 -0.3881  0.1100
 5267TIP3    H242725   1.017   4.478   1.032 -0.5597 -0.9911  0.1895
 5268TIP3   OH242726   4.993   8.364   6.760  0.5277 -0.3310 -0.1775
 5268TIP3    H142727   5.087   8.375   6.748  0.5740 -1.1868 -0.6640
 5268TIP3    H242728   4.983   8.273   6.790 -0.0225  0.2014  1.3430
 5269TIP3   OH242729   5.431   0.014   0.557  0.0550 -0.0921 -0.2034
 5269TIP3    H142730   5.468   0.085   0.505 -0.4448  0.7768  0.6128
 5269TIP3    H242731   5.339   0.012   0.534 -0.1711  0.2997  0.6310
 5270TIP3   OH242732   0.950   8.358   6.203 -0.7423 -0.4958 -0.1149
 5270TIP3    H142733   0.968   8.391   6.291 -1.4667 -1.8591  0.5965
 5270TIP3    H242734   1.036   8.342   6.164 -0.3833  1.5924 -0.2895
 5271TIP3   OH242735   1.346   8.369   0.200 -0.4269 -0.5701 -0.9745
 5271TIP3    H142736   1.394   8.419   0.134  0.0444 -1.7008 -1.5128
 5271TIP3    H242737   1.262   8.349   0.159 -1.5814  1.6821  0.0832
 5272TIP3   OH242738   1.673   1.864   5.582 -0.5790 -0.0786 -0.0656
 5272TIP3    H142739   1.737   1.794   5.564  0.4839  0.5522  1.1054
 5272TIP3    H242740   1.601   1.819   5.627 -0.5741 -0.6465 -0.6007
 5273TIP3   OH242741   0.608   3.775   6.180  0.1176  0.1326  0.3049
 5273TIP3    H142742   0.702   3.763   6.167  0.1989  1.0910 -0.1355
 5273TIP3    H242743   0.597   3.870   6.181 -1.2207  0.1534 -2.8765
 5274TIP3   OH242744   7.817   5.173   6.787  0.1395  0.5434 -0.0413
 5274TIP3    H142745   7.855   5.143   6.704  0.9511 -0.6076  0.7097
 5274TIP3    H242746   7.852   5.261   6.799  2.2566 -0.2844  0.3738
 5275TIP3   OH242747   3.932   7.776   6.897 -0.5585 -0.1793  0.3005
 5275TIP3    H142748   3.973   7.811   6.976 -0.1585 -0.7192  0.3356
 5275TIP3    H242749   3.993   7.798   6.826  0.7031 -2.4781  0.5743
 5276TIP3   OH242750   5.164   5.050   0.730 -0.4154  0.1006  0.5580
 5276TIP3    H142751   5.134   4.960   0.717  0.8068 -0.3465  0.6685
 5276TIP3    H242752   5.145   5.094   0.648 -1.7444 -0.0362  0.7752
 5277TIP3   OH242753   2.991   6.978   0.234 -0.1368  0.3939 -0.1149
 5277TIP3    H142754   2.958   6.907   0.289  0.0793 -0.2602 -0.8140
 5277TIP3    H242755   2.992   7.055   0.291  0.0148 -0.2552  0.7686
 5278TIP3   OH242756   4.826   0.430   0.687 -0.5994  0.2572 -0.0616
 5278TIP3    H142757   4.893   0.484   0.729  0.3546 -1.6423  1.0321
 5278TIP3    H242758   4.856   0.419   0.597 -2.0225  3.3582 -1.0570
 5279TIP3   OH242759   3.858   3.691   0.174 -0.5706 -0.8117  0.8849
 5279TIP3    H142760   3.938   3.712   0.127 -0.6763 -0.7437  0.7322
 5279TIP3    H242761   3.881   3.696   0.266 -1.1400  2.3449  0.9796
 5280TIP3   OH242762   7.130   2.394   0.630  0.4498  0.3666  0.2530
 5280TIP3    H142763   7.138   2.313   0.680 -0.0261 -0.7930 -1.4651
 5280TIP3    H242764   7.062   2.376   0.564 -0.7767  2.6760  0.7622
 5281TIP3   OH242765   1.948   2.115   4.900 -0.0054  0.3321  0.5101
 5281TIP3    H142766   1.976   2.155   4.817 -0.4618 -0.2435  0.0709
 5281TIP3    H242767   1.860   2.148   4.915 -1.1209 -1.8205 -0.7837
 5282TIP3   OH242768   7.539   3.599   0.774 -0.0268  0.2568 -0.0661
 5282TIP3    H142769   7.528   3.512   0.735 -2.7321 -0.0867  1.2134
 5282TIP3    H242770   7.633   3.607   0.789  0.5564 -1.5116 -2.1919
 5283TIP3   OH242771   5.981   7.385   1.591  0.6320 -0.3235  0.7397
 5283TIP3    H142772   5.935   7.465   1.614  1.3722 -0.5719  3.3855
 5283TIP3    H242773   5.915   7.316   1.597 -0.2391  0.0697 -2.4504
 5284TIP3   OH242774   4.221   3.744   4.864 -0.4404 -0.5686  0.2951
 5284TIP3    H142775   4.224   3.799   4.943 -0.8775  0.5959 -0.4761
 5284TIP3    H242776   4.295   3.684   4.874 -0.5632 -0.5238  1.6458
 5285TIP3   OH242777   7.733   5.565   6.689 -0.0351 -0.1892  0.0423
 5285TIP3    H142778   7.789   5.601   6.621  0.0355 -2.3473 -1.1230
 5285TIP3    H242779   7.789   5.505   6.738 -0.6149 -0.2100  0.7004
 5286TIP3   OH242780   6.095   7.824   1.454  0.7359 -0.1778  0.2683
 5286TIP3    H142781   6.039   7.815   1.531 -0.9889 -1.2121 -1.0328
 5286TIP3    H242782   6.121   7.916   1.454 -3.1913  1.1270 -0.4909
 5287TIP3   OH242783   0.580   3.921   6.627  0.4062 -0.1553  0.2691
 5287TIP3    H142784   0.586   3.831   6.660  2.0800 -0.5557 -1.0179
 5287TIP3    H242785   0.534   3.968   6.696  0.0069 -1.8597  1.2391
 5288TIP3   OH242786   7.960   4.650   0.052 -0.5374  0.8685 -0.0372
 5288TIP3    H142787   7.960   4.714   7.051  3.3345  0.3512 -0.7155
 5288TIP3    H242788   7.925   4.570   0.013 -0.6532  1.2196 -0.6618
 5289TIP3   OH242789   5.498   6.057   0.555 -0.5157 -0.1212 -0.6838
 5289TIP3    H142790   5.546   6.028   0.633 -1.4718 -1.6780 -0.6279
 5289TIP3    H242791   5.523   5.994   0.487  0.6558  1.4793 -1.8060
 5290TIP3   OH242792   4.226   6.916   6.992  0.4719  0.2421  0.1585
 5290TIP3    H142793   4.158   6.984   6.994  0.4246  0.3618 -2.3224
 5290TIP3    H242794   4.188   6.842   7.039 -0.3383  1.1638  1.0124
 5291TIP3   OH242795   6.746   6.175   7.010  0.0792 -0.5447 -0.2377
 5291TIP3    H142796   6.698   6.257   6.999  1.7281  0.5807  0.6436
 5291TIP3    H242797   6.700   6.113   6.953 -1.8211  0.6978 -0.1544
 5292TIP3   OH242798   1.197   6.173   6.674 -0.1475 -0.4137 -1.0087
 5292TIP3    H142799   1.104   6.153   6.676 -0.1177 -0.6162  1.6195
 5292TIP3    H242800   1.202   6.266   6.695  0.2733 -0.7983  0.7494
 5293TIP3   OH242801   2.126   5.304   0.504 -0.4957  0.0762 -0.0825
 5293TIP3    H142802   2.175   5.222   0.511 -0.4173  0.2733  2.3637
 5293TIP3    H242803   2.056   5.284   0.441  0.8225 -1.1476 -1.2342
 5294TIP3   OH242804   8.153   3.868   7.055 -0.1594 -0.5676 -0.0155
 5294TIP3    H142805   8.148   3.883   6.961 -0.5465 -2.0551 -0.2454
 5294TIP3    H242806   8.098   3.937   0.022 -0.6486 -0.4457 -0.9158
 5295TIP3   OH242807   4.378   6.203   0.953 -0.1246 -0.5047  0.1624
 5295TIP3    H142808   4.387   6.115   0.990 -0.0414 -0.5566  0.0171
 5295TIP3    H242809   4.296   6.236   0.990 -0.1761 -0.6586  0.1865
 5296TIP3   OH242810   0.459   2.775   0.411  0.4855 -0.6404  0.2194
 5296TIP3    H142811   0.369   2.797   0.435  0.8136 -0.0775  0.9620
 5296TIP3    H242812   0.452   2.741   0.322 -0.3792  0.0833 -0.0083
 5297TIP3   OH242813   0.919   7.090   0.801  0.3658  0.3136  0.4993
 5297TIP3    H142814   0.986   7.033   0.762 -0.3096 -1.2360  1.4944
 5297TIP3    H242815   0.845   7.085   0.740 -0.8759 -2.5060  2.0858
 5298TIP3   OH242816   7.681   1.513   0.903  0.2190  0.3627 -0.1023
 5298TIP3    H142817   7.671   1.552   0.990 -3.7027 -1.2106  0.3910
 5298TIP3    H242818   7.752   1.450   0.912  0.7163  1.1158  1.5901
 5299TIP3   OH242819   7.889   6.568   1.252  0.8608 -0.3879  0.5312
 5299TIP3    H142820   7.807   6.518   1.247  0.4870  0.2536  0.0768
 5299TIP3    H242821   7.913   6.583   1.160  0.6266  0.7975  0.6463
 5300TIP3   OH242822   7.349   7.075   7.035  0.2875  0.6735  0.7325
 5300TIP3    H142823   7.396   7.013   6.979  3.3980  1.0261  2.6793
 5300TIP3    H242824   7.282   7.021   0.008  1.4091 -0.8179  0.7069
 5301TIP3   OH242825   0.630   1.498   5.320  0.3015  0.3513 -0.4313
 5301TIP3    H142826   0.575   1.559   5.271  0.2354  1.2113  0.6690
 5301TIP3    H242827   0.707   1.486   5.265  0.1890  1.2108 -0.7910
 5302TIP3   OH242828   1.356   6.663   6.098  0.3201 -0.1058  0.3380
 5302TIP3    H142829   1.278   6.683   6.047  1.0038  0.5448 -0.4752
 5302TIP3    H242830   1.323   6.615   6.175 -1.0559  1.5349  0.8309
 5303TIP3   OH242831   7.852   4.772   0.714 -0.4034 -0.3518  0.8030
 5303TIP3    H142832   7.760   4.758   0.734 -0.0952 -1.3314  1.6087
 5303TIP3    H242833   7.874   4.703   0.651  0.0487 -0.8487  1.4855
 5304TIP3   OH242834   6.224   1.947   0.997 -0.2542  0.1384 -0.2464
 5304TIP3    H142835   6.179   1.939   0.913 -1.9051  4.0712  0.0170
 5304TIP3    H242836   6.316   1.960   0.975 -0.8962  2.9714 -1.7445
 5305TIP3   OH242837   7.454   0.880   0.731  0.0497  0.1811  0.7413
 5305TIP3    H142838   7.470   0.835   0.649 -1.4897  0.2812  0.3561
 5305TIP3    H242839   7.474   0.814   0.798 -0.9421 -0.6854  0.2191
 5306TIP3   OH242840   6.318   0.174   1.300  0.0555  0.7978  0.3053
 5306TIP3    H142841   6.389   0.123   1.338  1.2544  0.0282 -2.6502
 5306TIP3    H242842   6.243   0.157   1.356  0.6585 -3.4168  0.1134
 5307TIP3   OH242843   3.648   5.001   6.203 -0.2311 -0.2923 -0.2285
 5307TIP3    H142844   3.590   5.012   6.128 -0.7838 -1.0359  0.0781
 5307TIP3    H242845   3.608   5.055   6.272  1.2409  1.8375 -0.9522
 5308TIP3   OH242846   6.446   6.819   6.790  0.2489  0.0988  1.2406
 5308TIP3    H142847   6.403   6.869   6.720  0.4903 -1.2963  0.0236
 5308TIP3    H242848   6.465   6.734   6.749  2.6931  0.0980  2.2506
 5309TIP3   OH242849   3.035   0.486   6.358  0.2290 -0.0984  0.4706
 5309TIP3    H142850   3.008   0.544   6.429 -0.3539  1.5819 -1.0478
 5309TIP3    H242851   3.059   0.545   6.287  0.8717 -1.7225 -0.7037
 5310TIP3   OH242852   7.284   2.536   1.184 -0.2484 -0.2473  0.7535
 5310TIP3    H142853   7.252   2.571   1.101  0.7140 -1.8965 -0.3590
 5310TIP3    H242854   7.234   2.455   1.197 -0.3239 -0.0531  1.7439
 5311TIP3   OH242855   8.522   5.340   0.619  0.2877 -0.2386 -0.1120
 5311TIP3    H142856   0.044   5.406   0.580  0.9222 -0.0053  1.1370
 5311TIP3    H242857   0.009   5.259   0.575  1.7068 -0.1716  0.4354
 5312TIP3   OH242858   7.286   1.172   6.477 -0.4638 -0.2212  0.3124
 5312TIP3    H142859   7.379   1.174   6.454 -0.2947 -0.4234  0.9579
 5312TIP3    H242860   7.282   1.119   6.556 -1.3295 -1.4819 -0.5375
 5313TIP3   OH242861   5.577   5.105   5.860 -0.3185 -0.4741 -0.3235
 5313TIP3    H142862   5.569   5.155   5.779  3.9162  0.1074 -0.6381
 5313TIP3    H242863   5.634   5.032   5.837  0.8615 -0.3903  2.0213
 5314TIP3   OH242864   4.814   8.451   4.501 -0.7811  0.3919 -0.0612
 5314TIP3    H142865   4.740   8.473   4.558 -0.7106  0.0783  0.1551
 5314TIP3    H242866   4.817   8.356   4.501 -0.1532  0.4060  0.2283
 5315TIP3   OH242867   3.622   2.896   0.500  0.2788 -0.1455 -0.4010
 5315TIP3    H142868   3.575   2.850   0.430 -2.5346  0.7563  0.7453
 5315TIP3    H242869   3.586   2.986   0.498  0.3999  0.0183  1.8706
 5316TIP3   OH242870   3.325   6.219   1.323  0.5568  0.5653 -0.1988
 5316TIP3    H142871   3.301   6.263   1.405  2.1504  1.9841 -0.4334
 5316TIP3    H242872   3.366   6.137   1.350 -0.1179  0.3924  0.3423
 5317TIP3   OH242873   5.184   6.853   5.807 -0.3341 -0.8364 -0.0351
 5317TIP3    H142874   5.118   6.877   5.871  0.5278 -0.2195  0.6534
 5317TIP3    H242875   5.152   6.890   5.725 -0.6874 -0.2683  0.3498
 5318TIP3   OH242876   0.807   5.061   1.013  0.0766  0.2192 -0.0445
 5318TIP3    H142877   0.815   4.966   1.000  0.1697 -0.1406  2.2928
 5318TIP3    H242878   0.848   5.077   1.098  0.9928  2.5390 -0.8588
 5319TIP3   OH242879   4.930   4.444   5.035  0.0357 -1.0406  0.2308
 5319TIP3    H142880   4.889   4.510   5.090  0.1499 -1.9150  1.3858
 5319TIP3    H242881   4.857   4.394   4.998 -0.0214 -0.8666  0.1079
 5320TIP3   OH242882   0.028   6.692   6.990  0.0517 -0.5941 -0.2884
 5320TIP3    H142883   8.526   6.724   0.001  0.5487  2.3906 -1.1126
 5320TIP3    H242884   8.487   6.682   6.932 -0.1007 -0.9548 -0.0366
 5321TIP3   OH242885   5.404   8.486   4.970  0.0494  0.1345  0.3324
 5321TIP3    H142886   5.378   0.001   4.894  1.6856 -0.4599 -0.6685
 5321TIP3    H242887   5.365   8.400   4.956  2.6859 -0.9156 -1.4211
 5322TIP3   OH242888   4.765   2.846   0.750 -0.0701  0.0359  0.5157
 5322TIP3    H142889   4.714   2.798   0.816 -0.8674  1.7289  1.1716
 5322TIP3    H242890   4.856   2.821   0.768 -0.3022  0.1606  2.0220
 5323TIP3   OH242891   1.807   6.090   6.849  0.1555  0.3015 -0.7999
 5323TIP3    H142892   1.857   6.015   6.818  1.1712 -0.1867  1.7575
 5323TIP3    H242893   1.718   6.057   6.859  0.6314 -0.6769  0.4805
 5324TIP3   OH242894   3.573   5.883   0.774 -0.1410 -0.0242 -0.3226
 5324TIP3    H142895   3.515   5.809   0.788  0.3607 -0.3223  0.2293
 5324TIP3    H242896   3.545   5.948   0.839  1.6632 -1.0982  1.6864
 5325TIP3   OH242897   4.213   7.853   5.587  0.7253 -0.0339 -0.4175
 5325TIP3    H142898   4.234   7.946   5.596 -0.7602  0.3412 -0.5975
 5325TIP3    H242899   4.139   7.840   5.646  1.6489 -1.3845  0.4993
 5326TIP3   OH242900   1.137   5.434   1.265  0.5196 -0.7553 -0.6763
 5326TIP3    H142901   1.056   5.393   1.296  0.3819  1.2461  2.0247
 5326TIP3    H242902   1.201   5.362   1.265 -0.0567 -1.4107  2.3263
 5327TIP3   OH242903   8.043   3.822   0.297 -0.1155 -0.5271  0.0292
 5327TIP3    H142904   8.136   3.800   0.295  0.1794  0.3517  1.8203
 5327TIP3    H242905   8.037   3.906   0.252  0.1943  0.0583  1.0476
 5328TIP3   OH242906   1.652   8.123   0.402  0.3363 -0.0366 -0.6271
 5328TIP3    H142907   1.618   8.037   0.376 -2.3658  0.8775 -0.5068
 5328TIP3    H242908   1.575   8.181   0.397  1.9058  2.2245 -0.0199
 5329TIP3   OH242909   0.065   7.651   6.348  0.4064 -0.6662  0.1159
 5329TIP3    H142910   0.120   7.580   6.315  2.2867 -0.3995  2.3783
 5329TIP3    H242911   0.063   7.638   6.442 -0.7486  1.2298  0.4098
 5330TIP3   OH242912   5.118   2.161   0.075 -0.0845  0.1814 -0.3496
 5330TIP3    H142913   5.190   2.136   0.132 -0.0068  0.7967 -0.1781
 5330TIP3    H242914   5.072   2.078   0.057 -0.4849  0.0643  1.1061
 5331TIP3   OH242915   8.105   4.450   6.949  0.1699 -0.8455 -0.0597
 5331TIP3    H142916   8.107   4.393   6.873 -0.1134 -0.5278 -0.3064
 5331TIP3    H242917   8.148   4.399   7.018  2.3971 -0.3119 -0.9701
 5332TIP3   OH242918   4.603   2.746   0.171  0.0730 -0.5064 -0.2303
 5332TIP3    H142919   4.632   2.676   0.229 -1.5908 -0.1886  1.0522
 5332TIP3    H242920   4.674   2.810   0.174  0.7388 -1.2413  0.1445
 5333TIP3   OH242921   3.486   0.893   0.876 -0.4741 -0.3991 -0.3882
 5333TIP3    H142922   3.567   0.854   0.843 -1.0946 -0.0735 -2.4751
 5333TIP3    H242923   3.473   0.853   0.962  2.1205 -0.0992  0.2195
 5334TIP3   OH242924   8.499   4.192   0.124  0.0900  0.0112 -0.0779
 5334TIP3    H142925   0.042   4.185   0.068  0.3656 -0.4942  0.3638
 5334TIP3    H242926   8.534   4.206   0.212 -0.2424 -2.2563  0.4664
 5335TIP3   OH242927   7.003   8.070   1.025  0.2364 -0.0937  0.0472
 5335TIP3    H142928   7.017   8.018   1.104  0.1939 -0.7459 -0.3700
 5335TIP3    H242929   6.962   8.010   0.963  1.4486  0.0535 -0.9232
 5336TIP3   OH242930   1.636   0.035   1.695  0.0683 -0.2824  0.0310
 5336TIP3    H142931   1.641   8.508   1.767 -2.1065 -1.6024 -0.8458
 5336TIP3    H242932   1.550   0.077   1.704  0.6764  1.1760 -0.5375
 5337TIP3   OH242933   0.249   4.840   6.855 -0.2145  0.2950 -0.2177
 5337TIP3    H142934   0.264   4.747   6.868  0.3070  0.6723  2.5135
 5337TIP3    H242935   0.335   4.876   6.834  0.5547  0.6487  2.9272
 5338TIP3   OH242936   3.483   6.405   5.938 -0.0972 -0.2025  0.2275
 5338TIP3    H142937   3.569   6.400   5.896 -0.2228  1.2271 -0.2417
 5338TIP3    H242938   3.427   6.448   5.874 -0.5105  1.2661  1.5095
 5339TIP3   OH242939   6.606   1.251   6.651 -0.1203 -0.7345  0.0514
 5339TIP3    H142940   6.636   1.329   6.604  0.6710 -1.3521 -0.4904
 5339TIP3    H242941   6.515   1.271   6.675  0.0834  0.3595 -0.0501
 5340TIP3   OH242942   6.154   6.579   5.129  0.0025 -0.3316 -0.1711
 5340TIP3    H142943   6.080   6.591   5.070 -0.3109 -3.6225 -0.6182
 5340TIP3    H242944   6.142   6.647   5.196 -2.4442  0.3149 -1.1432
 5341TIP3   OH242945   1.004   5.386   5.864  0.2653 -0.6819  0.4905
 5341TIP3    H142946   0.993   5.329   5.940  1.6706  1.7578  2.6729
 5341TIP3    H242947   0.925   5.441   5.864 -1.2874 -2.6889 -1.8498
 5342TIP3   OH242948   4.178   5.818   0.519  0.3786  0.2636  0.1494
 5342TIP3    H142949   4.226   5.900   0.517  0.9672 -0.0903 -0.4165
 5342TIP3    H242950   4.108   5.833   0.583  0.2546  1.3177 -0.2192
 5343TIP3   OH242951   7.134   3.594   6.975  0.1941 -0.2813  0.0071
 5343TIP3    H142952   7.082   3.675   6.975  0.8510  0.1530 -0.2317
 5343TIP3    H242953   7.116   3.554   6.889  0.7599  0.2150 -0.3551
 5344TIP3   OH242954   1.493   2.896   0.308  0.8117  0.3209  0.0173
 5344TIP3    H142955   1.455   2.889   0.220 -0.1051  0.8582  0.3583
 5344TIP3    H242956   1.472   2.813   0.350  0.0906  0.5763  0.1690
 5345TIP3   OH242957   5.592   4.985   1.757  0.4024  0.7453  0.2421
 5345TIP3    H142958   5.651   5.001   1.831  2.2157  0.6638 -1.1277
 5345TIP3    H242959   5.638   4.921   1.703 -0.9489  0.6866 -0.8933
 5346TIP3   OH242960   2.644   0.867   1.168  0.2295  0.1374 -0.1806
 5346TIP3    H142961   2.628   0.781   1.207  2.0967  0.4600  1.4932
 5346TIP3    H242962   2.649   0.927   1.243 -0.1869  1.5594 -1.2452
 5347TIP3   OH242963   4.080   8.278   1.317 -0.2689  0.0825  0.1402
 5347TIP3    H142964   3.989   8.251   1.315 -0.7506  1.4056  1.5906
 5347TIP3    H242965   4.117   8.247   1.235 -1.8942 -0.8948 -0.2589
 5348TIP3   OH242966   2.784   6.260   1.010 -0.2300 -0.3364  0.3478
 5348TIP3    H142967   2.729   6.215   1.074 -0.3363 -1.1239 -0.2933
 5348TIP3    H242968   2.855   6.199   0.992 -0.9362 -0.7197 -1.3183
 5349TIP3   OH242969   1.739   4.266   6.457 -0.0183 -0.0849  0.1912
 5349TIP3    H142970   1.795   4.254   6.533  0.1718  1.3904  0.3111
 5349TIP3    H242971   1.764   4.352   6.421 -2.5014  0.8954  0.5579
 5350TIP3   OH242972   8.471   7.856   0.547 -0.6132 -0.2426 -0.3759
 5350TIP3    H142973   8.435   7.942   0.569  0.5092 -0.2736  1.8842
 5350TIP3    H242974   0.029   7.864   0.563 -0.5399 -1.9964  0.3226
 5351TIP3   OH242975   1.179   1.260   0.742  0.0759  0.0615  0.5919
 5351TIP3    H142976   1.089   1.240   0.715  0.5436 -1.3034 -0.0230
 5351TIP3    H242977   1.231   1.244   0.664  0.9360  0.2147  1.1263
 5352TIP3   OH242978   8.272   0.418   5.350 -0.0828 -0.0142  0.3590
 5352TIP3    H142979   8.296   0.350   5.287 -2.0796  0.7443 -1.3119
 5352TIP3    H242980   8.302   0.500   5.311  0.4110  0.3068  1.3614
 5353TIP3   OH242981   6.606   2.158   6.711  0.0258  0.0550  0.0728
 5353TIP3    H142982   6.611   2.079   6.764 -1.2832 -1.1774 -1.5226
 5353TIP3    H242983   6.678   2.150   6.649  0.2592  0.4305  0.2905
 5354TIP3   OH242984   5.793   7.252   6.972  0.1235  0.2779  0.4032
 5354TIP3    H142985   5.791   7.182   6.906  1.7161 -0.3967  1.0203
 5354TIP3    H242986   5.702   7.259   7.002 -0.5175  0.1455 -1.3580
 5355TIP3   OH242987   2.684   5.099   6.794 -0.2109 -0.6729 -0.5621
 5355TIP3    H142988   2.779   5.100   6.787 -0.2800 -1.0275 -1.6866
 5355TIP3    H242989   2.667   5.062   6.881  0.6864  1.6701  0.6932
 5356TIP3   OH242990   2.700   4.890   6.985  0.2020 -0.0819 -0.2921
 5356TIP3    H142991   2.692   4.843   7.069  1.5049  2.5872  1.4498
 5356TIP3    H242992   2.765   4.840   6.936 -1.6194 -2.5210 -0.4204
 5357TIP3   OH242993   2.869   5.172   6.212 -0.3656 -0.3108  0.2782
 5357TIP3    H142994   2.870   5.109   6.283  1.4590 -0.5761  0.0742
 5357TIP3    H242995   2.886   5.256   6.254 -3.0302  0.1619  0.5807
 5358TIP3   OH242996   3.123   8.330   7.027 -0.8895  0.2390  0.4139
 5358TIP3    H142997   3.182   8.321   0.032 -1.3430  1.2184  0.8983
 5358TIP3    H242998   3.092   8.420   7.032 -1.5944  0.0522 -0.4605
 5359TIP3   OH242999   2.987   0.547   5.767  0.1728  0.5864 -0.0514
 5359TIP3    H143000   2.923   0.617   5.777 -0.6471 -0.0936 -0.3905
 5359TIP3    H243001   2.934   0.467   5.758  1.0798 -0.1052  0.5303
 5360TIP3   OH243002   4.355   6.981   1.207  0.4071  0.2896  0.2094
 5360TIP3    H143003   4.449   6.998   1.219  0.2620  1.0729  0.3107
 5360TIP3    H243004   4.345   6.887   1.225  0.9587  0.4628  1.5480
 5361TIP3   OH243005   3.960   5.491   5.198  0.4884 -0.3451 -0.2114
 5361TIP3    H143006   3.877   5.533   5.217  0.6594 -0.8754  2.1437
 5361TIP3    H243007   4.022   5.533   5.259  1.6985 -0.6976 -1.1645
 5362TIP3   OH243008   2.984   6.072   0.954  0.0700  0.5247  0.0691
 5362TIP3    H143009   3.030   6.145   0.913  0.0754  0.3821 -0.1754
 5362TIP3    H243010   3.047   6.038   1.018 -0.5490  1.8326  1.4484
 5363TIP3   OH243011   0.370   4.870   5.731 -0.2480  0.1616  0.0426
 5363TIP3    H143012   0.386   4.858   5.638  0.2994  1.1056  0.0013
 5363TIP3    H243013   0.421   4.947   5.754 -0.0956 -0.2657  1.2025
 5364TIP3   OH243014   3.366   0.833   6.658 -0.8174  0.0884 -0.7120
 5364TIP3    H143015   3.457   0.861   6.661 -1.2617  1.5862  1.7326
 5364TIP3    H243016   3.358   0.773   6.733 -1.6711 -0.6643 -1.3890
 5365TIP3   OH243017   0.394   3.847   1.358 -0.1861 -0.2917 -0.3831
 5365TIP3    H143018   0.356   3.861   1.445 -1.1197 -0.1202 -0.8147
 5365TIP3    H243019   0.481   3.887   1.364 -0.4920  0.2899  0.2711
 5366TIP3   OH243020   1.692   6.045   1.396 -0.2297  0.3215 -0.6653
 5366TIP3    H143021   1.675   6.139   1.402  0.3524  0.3572  0.7477
 5366TIP3    H243022   1.787   6.037   1.396 -0.2701 -0.2531 -1.2571
 5367TIP3   OH243023   1.608   2.931   0.753 -0.3920  0.0792  0.8899
 5367TIP3    H143024   1.666   2.940   0.677 -0.7715 -2.8021  0.1259
 5367TIP3    H243025   1.543   3.000   0.742  0.0318  0.2476 -0.9664
 5368TIP3   OH243026   2.404   4.533   4.668 -0.4180  0.3110 -0.3067
 5368TIP3    H143027   2.451   4.601   4.619  1.4938 -0.7197 -0.0353
 5368TIP3    H243028   2.438   4.540   4.757 -1.9162  0.4515  0.2864
 5369TIP3   OH243029   5.129   4.866   5.253  0.0514  0.1325  0.3336
 5369TIP3    H143030   5.078   4.809   5.196  0.4780  0.5432 -0.4717
 5369TIP3    H243031   5.080   4.948   5.255  0.6773  0.5309 -0.4491
 5370TIP3   OH243032   4.002   1.354   5.642  0.2698  0.3013  0.0070
 5370TIP3    H143033   4.016   1.444   5.671 -0.5004  0.1935  0.7688
 5370TIP3    H243034   3.907   1.346   5.633  0.1967 -0.8422  1.3831
 5371TIP3   OH243035   2.779   7.621   0.257  0.3056 -0.0855  0.3083
 5371TIP3    H143036   2.770   7.528   0.278 -0.5890 -0.0931 -0.0384
 5371TIP3    H243037   2.792   7.622   0.162 -0.7309  0.1786  0.1542
 5372TIP3   OH243038   5.544   2.738   0.587 -0.4331 -1.0010 -0.4383
 5372TIP3    H143039   5.640   2.740   0.590 -0.3920 -1.1358 -1.2701
 5372TIP3    H243040   5.517   2.731   0.678  0.2254  2.5225  0.1449
 5373TIP3   OH243041   6.877   3.614   1.263 -0.1283  0.1265 -0.4208
 5373TIP3    H143042   6.862   3.534   1.314  0.7274  1.0063  1.2944
 5373TIP3    H243043   6.813   3.676   1.298  1.6306  1.2845  0.9372
 5374TIP3   OH243044   5.179   6.647   6.596  0.2626 -0.5384  0.3470
 5374TIP3    H143045   5.161   6.715   6.532  1.2107  0.0959  0.7310
 5374TIP3    H243046   5.207   6.694   6.675  0.4228 -1.3420  0.7882
 5375TIP3   OH243047   7.527   3.423   6.065 -0.4471 -0.0915 -0.0526
 5375TIP3    H143048   7.614   3.400   6.099 -0.3609 -0.2465 -0.3700
 5375TIP3    H243049   7.472   3.431   6.143  0.1706  1.4361  0.2653
 5376TIP3   OH243050   7.678   4.759   6.447 -0.4608  0.4068 -0.0606
 5376TIP3    H143051   7.647   4.672   6.471 -0.7926  0.2919 -0.9066
 5376TIP3    H243052   7.752   4.743   6.389 -0.4914  0.6945 -0.1793
 5377TIP3   OH243053   0.014   0.848   7.017 -0.2299 -0.4512 -0.1347
 5377TIP3    H143054   8.506   0.872   6.935  1.3660  0.1604 -0.8354
 5377TIP3    H243055   8.485   0.868   0.014 -1.8177 -1.5474 -1.2485
 5378TIP3   OH243056   3.171   6.502   6.699 -0.2835 -0.1426  0.6422
 5378TIP3    H143057   3.084   6.544   6.700 -0.1815  0.1009 -0.1623
 5378TIP3    H243058   3.197   6.500   6.791 -0.5937  0.9366  0.7660
 5379TIP3   OH243059   5.613   7.982   0.508  0.3463 -0.2359  0.3672
 5379TIP3    H143060   5.665   8.050   0.464  0.7686 -1.0359 -0.4134
 5379TIP3    H243061   5.527   7.987   0.468  0.5208 -0.4809 -0.0438
 5380TIP3   OH243062   5.239   1.546   6.340  0.9560  0.1115 -0.2633
 5380TIP3    H143063   5.218   1.612   6.274  0.2467  1.8941  1.6459
 5380TIP3    H243064   5.192   1.467   6.311  0.7586  0.7809 -1.9040
 5381TIP3   OH243065   0.215   7.347   5.833 -0.2533  0.4843 -0.1005
 5381TIP3    H143066   0.123   7.369   5.827 -0.0469  1.2130 -0.7058
 5381TIP3    H243067   0.238   7.313   5.747  0.2327  1.0906 -0.2187
 5382TIP3   OH243068   5.809   6.601   1.460 -0.3311  0.2502  0.0013
 5382TIP3    H143069   5.894   6.580   1.421 -1.6623 -2.0455 -1.9078
 5382TIP3    H243070   5.827   6.607   1.554  1.6291 -2.0768 -0.1332
 5383TIP3   OH243071   7.415   2.393   0.552 -0.1319  0.2680  0.1494
 5383TIP3    H143072   7.439   2.314   0.599  0.0871  1.0792  1.4526
 5383TIP3    H243073   7.321   2.403   0.566 -0.4777 -0.5878 -1.3488
 5384TIP3   OH243074   7.914   0.079   1.121 -0.0037 -0.0106 -0.0863
 5384TIP3    H143075   7.822   0.088   1.095  0.0838  1.3270  0.0225
 5384TIP3    H243076   7.945   0.168   1.135  0.7182 -0.5225  2.0159
 5385TIP3   OH243077   5.728   7.731   0.450 -0.1761 -0.2838  0.0821
 5385TIP3    H143078   5.686   7.713   0.534  0.3342 -1.0251  0.1895
 5385TIP3    H243079   5.736   7.827   0.448 -3.0505  0.0205 -0.5585
 5386TIP3   OH243080   3.346   2.193   5.449  0.4838  0.1851 -0.0500
 5386TIP3    H143081   3.250   2.200   5.448  0.5491  1.1537 -0.3206
 5386TIP3    H243082   3.374   2.252   5.518  0.8634 -0.6384  0.5197
 5387TIP3   OH243083   5.304   7.461   6.751  0.4469  0.3769  0.5135
 5387TIP3    H143084   5.384   7.451   6.698 -0.2168 -2.4111 -0.1213
 5387TIP3    H243085   5.236   7.480   6.687  0.3264  1.3208  0.9025
 5388TIP3   OH243086   7.278   7.958   6.099 -0.1900  0.3159  0.5293
 5388TIP3    H143087   7.185   7.947   6.117 -0.2897 -0.3070 -0.2947
 5388TIP3    H243088   7.314   7.996   6.180 -1.2387  1.0825  0.6542
 5389TIP3   OH243089   0.154   4.171   6.464  0.2416 -0.2210  0.6889
 5389TIP3    H143090   0.087   4.164   6.396  0.9061 -1.3737  0.1337
 5389TIP3    H243091   0.186   4.261   6.457 -1.0546  0.2755  0.8047
 5390TIP3   OH243092   1.704   2.222   4.945  0.0097 -0.2311  0.5894
 5390TIP3    H143093   1.611   2.209   4.963 -0.2843  1.9118  0.8020
 5390TIP3    H243094   1.741   2.253   5.027  1.5327 -3.4317  1.2964
 5391TIP3   OH243095   4.831   2.952   0.491  0.2218  0.5883  0.5395
 5391TIP3    H143096   4.813   2.868   0.449  0.5248  0.6650  0.2519
 5391TIP3    H243097   4.795   2.943   0.579  2.4704 -0.7586  1.4030
 5392TIP3   OH243098   6.453   6.819   6.078 -0.2429 -0.1071  0.1766
 5392TIP3    H143099   6.459   6.801   6.172  2.1092 -0.8991 -0.0625
 5392TIP3    H243100   6.360   6.809   6.058 -0.6341 -1.1048  2.1961
 5393TIP3   OH243101   7.185   5.329   1.912  0.3862 -0.1692  0.0002
 5393TIP3    H143102   7.133   5.364   1.841  0.0263 -2.0772 -0.7428
 5393TIP3    H243103   7.186   5.234   1.897  1.1515 -0.5325  1.9624
 5394TIP3   OH243104   0.613   0.203   0.958 -0.1115  0.3447  0.1853
 5394TIP3    H143105   0.563   0.122   0.970  1.2340 -0.5199  0.1564
 5394TIP3    H243106   0.603   0.222   0.864  0.0981 -0.1558  0.0560
 5395TIP3   OH243107   3.145   5.602   1.623 -0.0134  0.1142  0.2970
 5395TIP3    H143108   3.081   5.631   1.688 -1.1922 -0.6718 -0.4766
 5395TIP3    H243109   3.207   5.675   1.616  0.5173 -0.0090  2.7193
 5396TIP3   OH243110   5.148   7.480   6.529 -0.3775 -0.0376 -0.1479
 5396TIP3    H143111   5.178   7.522   6.449  2.8362  1.1613  1.4796
 5396TIP3    H243112   5.053   7.473   6.519 -0.4867  2.9397 -2.6880
 5397TIP3   OH243113   1.379   1.529   6.113  0.3398  0.0543  0.2746
 5397TIP3    H143114   1.449   1.593   6.103  0.1541  0.0165 -1.5488
 5397TIP3    H243115   1.307   1.564   6.060 -0.6046 -0.5030  1.1442
 5398TIP3   OH243116   5.473   7.054   6.995  0.4019  0.4618 -0.1130
 5398TIP3    H143117   5.464   7.052   6.900 -1.6799 -1.6802  0.0572
 5398TIP3    H243118   5.464   6.963   7.022 -1.9261  1.3116  2.3479
 5399TIP3   OH243119   5.332   3.827   2.166 -0.8803  0.4070  0.0168
 5399TIP3    H143120   5.401   3.879   2.209 -0.4415  0.6412 -0.9532
 5399TIP3    H243121   5.322   3.867   2.080 -3.2092  1.2199  0.6109
 5400TIP3   OH243122   5.643   1.802   6.426  0.1756 -0.3934 -0.4833
 5400TIP3    H143123   5.726   1.839   6.397  0.7971 -1.2549  0.1461
 5400TIP3    H243124   5.661   1.769   6.514 -1.1069  0.3081  0.0663
 5401TIP3   OH243125   6.733   6.167   6.669  0.4628  0.2919 -0.2172
 5401TIP3    H143126   6.656   6.150   6.724  0.2026  2.5192  0.1976
 5401TIP3    H243127   6.728   6.101   6.601  0.6391 -2.4099  2.2062
 5402TIP3   OH243128   5.618   4.728   6.469  0.1702 -0.5837  0.1114
 5402TIP3    H143129   5.558   4.654   6.455 -1.4520  0.4196  1.4320
 5402TIP3    H243130   5.667   4.735   6.387  0.8931 -3.5438  0.1748
 5403TIP3   OH243131   4.072   7.291   5.365  0.2263 -0.8042 -0.3405
 5403TIP3    H143132   4.007   7.360   5.378  1.8051  0.5274  0.9640
 5403TIP3    H243133   4.065   7.237   5.444  0.3827 -0.9383 -0.4198
 5404TIP3   OH243134   3.134   2.964   5.103  0.2536 -0.3408  0.0081
 5404TIP3    H143135   3.074   2.907   5.152  1.4987 -1.6308  0.1176
 5404TIP3    H243136   3.081   3.001   5.033 -0.3799 -2.5827 -0.7727
 5405TIP3   OH243137   4.816   5.262   0.895  0.2074  0.3655 -0.0007
 5405TIP3    H143138   4.818   5.211   0.814  0.6410  0.5695 -0.1180
 5405TIP3    H243139   4.727   5.250   0.928 -0.2588  1.0100 -0.9695
 5406TIP3   OH243140   2.198   0.818   0.263  0.1079 -0.9795  0.0753
 5406TIP3    H143141   2.269   0.881   0.249 -0.0085 -1.1242 -1.2800
 5406TIP3    H243142   2.135   0.865   0.317  1.4271 -1.0032  1.7132
 5407TIP3   OH243143   6.235   2.393   0.861 -0.3208 -0.5533  0.2475
 5407TIP3    H143144   6.326   2.406   0.835 -0.3754 -1.3862 -0.3970
 5407TIP3    H243145   6.195   2.349   0.786 -1.7694  1.5646 -0.3267
 5408TIP3   OH243146   7.288   4.656   2.111 -0.7724 -0.4999  0.2323
 5408TIP3    H143147   7.229   4.731   2.124 -0.5335 -0.2643 -0.0510
 5408TIP3    H243148   7.232   4.588   2.073 -0.8950 -0.3212  0.0905
 5409TIP3   OH243149   3.082   5.377   0.998 -0.3494  0.2677  0.2318
 5409TIP3    H143150   3.019   5.322   1.045 -1.6647 -0.1535 -1.8680
 5409TIP3    H243151   3.158   5.381   1.056 -1.2858 -1.4225  1.7000
 5410TIP3   OH243152   0.279   5.504   6.447  0.3481 -0.5972 -0.3561
 5410TIP3    H143153   0.253   5.556   6.523  0.5895  0.1398 -0.7706
 5410TIP3    H243154   0.349   5.447   6.480 -1.0698 -1.9382  0.5356
 5411TIP3   OH243155   2.228   5.025   5.223 -0.0894  0.4478  0.2852
 5411TIP3    H143156   2.238   4.979   5.140 -0.9371  0.6753  0.0415
 5411TIP3    H243157   2.198   4.958   5.285  1.8960 -0.0298  0.7835
 5412TIP3   OH243158   6.331   4.764   6.503 -0.1342  0.0284  0.1661
 5412TIP3    H143159   6.413   4.771   6.551  0.0144  1.4104 -0.2415
 5412TIP3    H243160   6.265   4.745   6.570  0.5609 -1.6081  0.4294
 5413TIP3   OH243161   7.612   1.303   0.215  0.3014  0.2603 -0.1495
 5413TIP3    H143162   7.648   1.215   0.225 -1.2214 -0.2651  1.2643
 5413TIP3    H243163   7.672   1.347   0.155  1.3848 -1.5720 -0.4966
 5414TIP3   OH243164   1.957   1.035   7.059  0.0575  0.2053 -0.0906
 5414TIP3    H143165   1.869   1.006   0.011  1.6047 -3.4254  1.9850
 5414TIP3    H243166   1.980   0.983   6.981  0.7208  0.3989 -0.0339
 5415TIP3   OH243167   2.685   1.084   1.385 -0.1799  0.1592  0.8858
 5415TIP3    H143168   2.715   1.089   1.476 -0.4303  1.5767  0.9167
 5415TIP3    H243169   2.614   1.148   1.380  0.3611  0.6864 -0.5012
 5416TIP3   OH243170   3.149   2.564   1.703  0.5193 -0.2366  0.2646
 5416TIP3    H143171   3.223   2.583   1.646  0.5202 -0.4471  0.1925
 5416TIP3    H243172   3.151   2.468   1.714 -0.2703 -0.3472 -0.4660
 5417TIP3   OH243173   5.344   3.969   1.670 -0.0533  0.1748  0.2990
 5417TIP3    H143174   5.362   3.932   1.583 -0.0559 -0.6601  0.6491
 5417TIP3    H243175   5.422   4.020   1.691 -0.0569  0.3928 -0.1983
 5418TIP3   OH243176   8.332   0.570   5.934 -0.1888 -0.1796  0.0035
 5418TIP3    H143177   8.387   0.631   5.984  0.4479 -0.0601 -0.8218
 5418TIP3    H243178   8.340   0.599   5.843 -2.5444  0.5571 -0.0381
 5419TIP3   OH243179   3.673   3.306   0.117  0.0471 -0.7236  0.4764
 5419TIP3    H143180   3.596   3.256   0.092 -0.4175 -0.3354  1.0911
 5419TIP3    H243181   3.733   3.242   0.155 -0.7864 -0.7382  1.8161
 5420TIP3   OH243182   7.073   4.602   5.736  0.6888  0.2173 -0.8051
 5420TIP3    H143183   7.082   4.510   5.761  1.7723  0.1737 -1.3243
 5420TIP3    H243184   7.158   4.626   5.699  0.6023  1.5751 -0.2150
 5421TIP3   OH243185   1.540   1.947   0.194 -0.1017 -0.2120  0.6116
 5421TIP3    H143186   1.446   1.929   0.205 -0.2630  0.4119  0.3353
 5421TIP3    H243187   1.552   1.951   0.099 -0.5605  3.3398  0.5816
 5422TIP3   OH243188   8.329   0.698   5.682 -0.3704 -0.2031 -0.3268
 5422TIP3    H143189   8.397   0.652   5.633 -2.3041 -2.8947 -0.7016
 5422TIP3    H243190   8.274   0.739   5.615  0.5318  1.6018 -0.0398
 5423TIP3   OH243191   1.517   3.306   0.401 -0.5764 -0.4028  0.3912
 5423TIP3    H143192   1.567   3.379   0.365 -0.0236 -0.5502  0.8384
 5423TIP3    H243193   1.510   3.244   0.328  1.0977 -0.9850  0.6643
 5424TIP3   OH243194   8.491   4.630   6.302  0.2757  0.6157  0.2740
 5424TIP3    H143195   8.481   4.715   6.259  0.5058  0.6515  0.2913
 5424TIP3    H243196   0.051   4.616   6.305  0.2193  0.1010 -0.2376
 5425TIP3   OH243197   3.025   2.782   1.841 -0.4589 -0.7171  0.5731
 5425TIP3    H143198   2.965   2.747   1.906  0.1819 -0.5579  1.2690
 5425TIP3    H243199   3.062   2.705   1.798  1.4881 -1.0143  2.5848
 5426TIP3   OH243200   4.130   6.367   6.425 -0.7722  0.3000  0.9531
 5426TIP3    H143201   4.155   6.274   6.423  1.4085  0.8288  0.5231
 5426TIP3    H243202   4.096   6.380   6.514 -1.0704 -0.8989  1.0392
 5427TIP3   OH243203   7.678   0.890   5.548 -0.0614 -0.2160  0.4553
 5427TIP3    H143204   7.766   0.853   5.535 -0.8136 -2.7468  1.9786
 5427TIP3    H243205   7.623   0.815   5.568 -2.5252  1.3716  0.0648
 5428TIP3   OH243206   6.159   6.171   5.197  0.0432  0.3802 -0.3338
 5428TIP3    H143207   6.241   6.134   5.228  0.9462  0.0164 -2.9073
 5428TIP3    H243208   6.141   6.243   5.258  1.7591 -0.0986  0.8296
 5429TIP3   OH243209   4.842   7.740   6.607 -0.5651 -0.1885 -0.9115
 5429TIP3    H143210   4.928   7.747   6.567 -0.5003  0.0127 -0.7388
 5429TIP3    H243211   4.848   7.663   6.665 -0.0323  0.6995  0.2484
 5430TIP3   OH243212   4.796   4.747   0.567  0.2225 -0.1484  0.3451
 5430TIP3    H143213   4.826   4.665   0.604 -0.1099 -0.5008 -0.1470
 5430TIP3    H243214   4.844   4.755   0.484 -1.6763 -1.2067 -0.9368
 5431TIP3   OH243215   4.808   0.077   1.782 -0.1185 -0.8949  0.1356
 5431TIP3    H143216   4.800   0.171   1.797 -0.0715 -0.7813 -0.5062
 5431TIP3    H243217   4.879   0.049   1.839  1.8995  0.0027 -1.7736
 5432TIP3   OH243218   1.212   3.954   6.950 -0.0038 -0.0826 -0.4804
 5432TIP3    H143219   1.259   4.008   6.887 -0.3947 -0.2532 -0.9284
 5432TIP3    H243220   1.126   3.939   6.909 -0.9275  1.2629  0.8581
 5433TIP3   OH243221   5.944   7.554   0.499  0.4251 -0.2861 -0.1833
 5433TIP3    H143222   5.868   7.605   0.470 -0.5102 -1.7308 -0.4046
 5433TIP3    H243223   5.935   7.550   0.594  1.4436  1.3301  0.0238
 5434TIP3   OH243224   5.036   1.858   5.928 -0.4799  0.4030  0.2716
 5434TIP3    H143225   5.058   1.866   5.835  1.2793 -2.8828  0.2504
 5434TIP3    H243226   4.948   1.819   5.928 -0.3106  0.0140 -0.0425
 5435TIP3   OH243227   5.563   2.374   6.525  0.0535  0.1151 -0.2154
 5435TIP3    H143228   5.475   2.367   6.564 -0.7334  1.1845 -1.7068
 5435TIP3    H243229   5.575   2.291   6.478 -1.0613  0.7636 -1.7196
 5436TIP3   OH243230   6.889   4.362   1.454  0.0270  0.0815  0.5728
 5436TIP3    H143231   6.923   4.310   1.527 -0.0269 -0.5733  0.1359
 5436TIP3    H243232   6.873   4.299   1.384  1.7073  0.9100 -0.6281
 5437TIP3   OH243233   0.709   2.893   0.384  0.0451 -0.1244  0.2106
 5437TIP3    H143234   0.614   2.905   0.376  0.1786  1.2395  0.3994
 5437TIP3    H243235   0.746   2.954   0.321  0.8349  1.4982  2.1498
 5438TIP3   OH243236   3.185   6.946   0.450 -0.3458  0.0025 -0.3897
 5438TIP3    H143237   3.178   6.853   0.429  2.1132 -0.0170 -1.3640
 5438TIP3    H243238   3.136   6.956   0.532  0.8424 -2.5368  0.7263
 5439TIP3   OH243239   8.059   5.438   0.495  0.3820  0.8181 -0.2028
 5439TIP3    H143240   8.109   5.501   0.445  1.2086 -0.6960 -1.3729
 5439TIP3    H243241   8.029   5.374   0.430  0.0178 -0.2679  0.9887
 5440TIP3   OH243242   7.247   1.334   6.252  0.2326 -0.0472 -0.5571
 5440TIP3    H143243   7.297   1.276   6.195  1.4961 -0.5992  1.0310
 5440TIP3    H243244   7.239   1.285   6.334 -0.9833  0.9709 -0.0422
 5441TIP3   OH243245   6.245   5.323   1.597 -0.1175 -0.6593  0.5920
 5441TIP3    H143246   6.251   5.264   1.522 -0.4320 -0.5109  0.4495
 5441TIP3    H243247   6.319   5.298   1.653  0.9872  0.1579 -0.4264
 5442TIP3   OH243248   7.505   3.419   5.795  0.2639  0.0135 -0.5090
 5442TIP3    H143249   7.558   3.491   5.761  1.6218 -0.7946 -0.2079
 5442TIP3    H243250   7.491   3.440   5.887  0.8717 -0.1971 -0.3590
 5443TIP3   OH243251   5.803   2.896   6.960 -0.2717  0.4234 -0.2673
 5443TIP3    H143252   5.717   2.872   6.926 -1.2714  4.6655 -1.2514
 5443TIP3    H243253   5.792   2.899   7.055 -0.6110 -0.8229 -0.2482
 5444TIP3   OH243254   1.457   7.553   6.478 -0.1027 -0.5688 -0.3301
 5444TIP3    H143255   1.508   7.503   6.541 -1.5286  0.3590  1.6799
 5444TIP3    H243256   1.492   7.642   6.483  0.4072 -0.6809 -1.6026
 5445TIP3   OH243257   6.535   5.078   5.937  0.4314 -0.1371 -0.4533
 5445TIP3    H143258   6.475   5.152   5.946  0.4562  0.0313 -1.5259
 5445TIP3    H243259   6.494   5.022   5.871  1.1927 -0.2748 -0.8240
 5446TIP3   OH243260   1.654   6.748   6.689  0.1610 -0.1871  0.1781
 5446TIP3    H143261   1.593   6.819   6.666  0.9359  0.7124  0.8213
 5446TIP3    H243262   1.731   6.766   6.635  0.5049 -0.3232  0.6230
 5447TIP3   OH243263   5.805   3.143   5.652 -0.3825 -0.0498  0.4422
 5447TIP3    H143264   5.727   3.196   5.673  0.6217  1.3289  0.8476
 5447TIP3    H243265   5.866   3.206   5.614  1.1102 -0.7838  1.5586
 5448TIP3   OH243266   8.259   5.816   6.747 -0.0782 -0.2651 -0.4533
 5448TIP3    H143267   8.351   5.825   6.771  0.2170 -1.8855 -0.8263
 5448TIP3    H243268   8.238   5.724   6.767 -0.9260 -0.5989 -2.5719
 5449TIP3   OH243269   1.617   6.387   0.536 -0.1591  0.0527  0.3058
 5449TIP3    H143270   1.675   6.313   0.552  1.2424  1.3759  1.6636
 5449TIP3    H243271   1.587   6.375   0.446  1.1185 -1.4142  0.0327
 5450TIP3   OH243272   7.753   4.152   6.924  0.7502 -0.1701  0.2385
 5450TIP3    H143273   7.667   4.161   6.882  1.5918  1.1987 -1.2916
 5450TIP3    H243274   7.740   4.084   6.991 -1.2766 -0.6548 -0.5778
 5451TIP3   OH243275   7.742   5.374   1.534  0.0810  0.1056 -0.2435
 5451TIP3    H143276   7.698   5.452   1.501  0.5054  0.3123 -0.3322
 5451TIP3    H243277   7.823   5.369   1.483 -0.3115 -0.8433 -0.8182
 5452TIP3   OH243278   7.851   3.553   0.556  0.2591  0.1013 -0.3138
 5452TIP3    H143279   7.923   3.494   0.580  0.1215 -0.2865 -0.8398
 5452TIP3    H243280   7.798   3.559   0.636  1.5462  1.4120  0.4975
 5453TIP3   OH243281   4.335   6.033   1.610 -0.0759 -0.4271 -0.7428
 5453TIP3    H143282   4.404   6.091   1.577 -1.4887  1.0077 -1.2570
 5453TIP3    H243283   4.381   5.950   1.628  1.7951  0.5110 -0.9420
 5454TIP3   OH243284   5.220   6.973   0.191 -0.3926 -0.1623 -0.4326
 5454TIP3    H143285   5.274   6.941   0.263 -2.2180 -1.1038  0.5956
 5454TIP3    H243286   5.274   6.961   0.113  1.0813 -0.4962  0.5972
 5455TIP3   OH243287   7.791   2.623   0.058  0.4219  0.5487  0.9819
 5455TIP3    H143288   7.827   2.534   0.060  1.3354  0.8692 -0.2349
 5455TIP3    H243289   7.718   2.618   7.067  0.2862  0.5856  1.1377
 5456TIP3   OH243290   2.650   1.726   1.953  0.0825 -1.0079  0.1430
 5456TIP3    H143291   2.579   1.683   2.001  0.1446  0.8464  2.0233
 5456TIP3    H243292   2.606   1.794   1.902  0.1859 -2.0462 -1.3993
 5457TIP3   OH243293   6.436   2.726   0.549 -0.0270  0.2391  0.1263
 5457TIP3    H143294   6.514   2.772   0.579  0.6325 -0.0614 -1.0697
 5457TIP3    H243295   6.399   2.783   0.481  0.4681 -0.6656 -0.9463
 5458TIP3   OH243296   0.553   2.753   6.756 -0.0759  0.7688  0.0556
 5458TIP3    H143297   0.543   2.754   6.660 -1.2214  0.3606  0.1507
 5458TIP3    H243298   0.639   2.716   6.771  0.0201  0.6133 -0.8163
 5459TIP3   OH243299   2.400   6.470   0.845  0.2630  0.2461  0.3111
 5459TIP3    H143300   2.318   6.426   0.818  1.9762 -1.9329 -1.8216
 5459TIP3    H243301   2.418   6.532   0.774  2.1540 -1.8170 -1.1505
 5460TIP3   OH243302   7.815   5.640   0.249 -0.7562  0.0973 -0.3732
 5460TIP3    H143303   7.796   5.565   0.191  0.7137 -0.5030 -0.1099
 5460TIP3    H243304   7.740   5.698   0.238 -2.8438 -2.2133  0.7636
 5461TIP3   OH243305   4.891   7.745   0.925  0.0765 -0.2641  0.3480
 5461TIP3    H143306   4.847   7.740   1.010 -0.4069 -0.4475  0.0924
 5461TIP3    H243307   4.885   7.837   0.900 -0.1345 -0.2803  0.3324
 5462TIP3   OH243308   5.237   1.218   1.315  0.3363  0.9206 -0.3252
 5462TIP3    H143309   5.264   1.139   1.361  0.0569  0.6818 -0.5717
 5462TIP3    H243310   5.174   1.260   1.375 -1.1917 -0.1628 -1.1152
 5463TIP3   OH243311   4.064   8.416   6.971  0.0857  0.6964  0.1360
 5463TIP3    H143312   4.103   8.331   6.992  0.8865  1.2361  0.9062
 5463TIP3    H243313   4.019   8.402   6.889 -0.5522 -0.7098  0.7004
 5464TIP3   OH243314   3.188   1.467   6.591 -1.1408  0.4824  0.2237
 5464TIP3    H143315   3.108   1.519   6.599 -1.9582 -1.0002  2.6433
 5464TIP3    H243316   3.159   1.382   6.560 -0.3227  0.2917 -0.0464
 5465TIP3   OH243317   1.213   3.276   1.164  0.4780  0.0957  0.3071
 5465TIP3    H143318   1.205   3.336   1.238 -0.2715 -0.6405  0.8392
 5465TIP3    H243319   1.262   3.202   1.198 -0.3574 -0.5011  0.2320
 5466TIP3   OH243320   6.516   2.660   5.520 -0.5294  0.0856 -0.3327
 5466TIP3    H143321   6.561   2.656   5.436  1.5185 -0.5163  0.7285
 5466TIP3    H243322   6.452   2.589   5.516  1.2154 -1.5545 -0.5081
 5467TIP3   OH243323   4.537   6.853   0.274 -0.3426  0.1432 -0.6312
 5467TIP3    H143324   4.562   6.944   0.257 -1.0839  0.2525 -1.1915
 5467TIP3    H243325   4.441   6.853   0.267 -0.7069  0.0098  2.7486
 5468TIP3   OH243326   4.498   1.260   6.370 -0.0950  0.3209  0.8214
 5468TIP3    H143327   4.489   1.334   6.429 -3.0335 -0.7200  1.8491
 5468TIP3    H243328   4.476   1.184   6.423 -1.5684 -0.8075 -1.2628
 5469TIP3   OH243329   8.328   5.507   1.298  0.5988  0.3934 -0.2142
 5469TIP3    H143330   8.258   5.525   1.361 -0.2911  0.1436 -1.1055
 5469TIP3    H243331   8.283   5.466   1.223  2.0912 -2.8987  0.5012
 5470TIP3   OH243332   1.877   5.094   5.623  0.1797 -0.2293 -0.1375
 5470TIP3    H143333   1.870   5.002   5.600  1.3743 -0.5559  0.6915
 5470TIP3    H243334   1.896   5.094   5.717 -0.3327  0.8901 -0.0107
 5471TIP3   OH243335   6.530   4.168   5.533  0.0345 -0.1411  0.1146
 5471TIP3    H143336   6.461   4.177   5.468 -0.3958  0.6939  0.6631
 5471TIP3    H243337   6.605   4.213   5.495  0.9192 -2.6151 -1.2956
 5472TIP3   OH243338   8.358   2.528   0.092  0.5689 -0.2141 -0.6669
 5472TIP3    H143339   8.270   2.504   0.119  0.9097 -1.1089 -0.3194
 5472TIP3    H243340   8.346   2.603   0.033 -0.4993 -0.9699 -1.4387
 5473TIP3   OH243341   8.378   1.074   1.239 -0.0110  0.2141  0.5093
 5473TIP3    H143342   8.384   1.124   1.158 -0.9223 -0.6151 -0.0778
 5473TIP3    H243343   8.448   1.111   1.294  1.2738  0.1311 -0.9864
 5474TIP3   OH243344   0.888   5.244   0.844 -0.0547 -0.0273  0.4045
 5474TIP3    H143345   0.809   5.267   0.794 -0.0468  0.4547  0.6023
 5474TIP3    H243346   0.858   5.181   0.909 -0.4426  0.7160  0.9660
 5475TIP3   OH243347   5.054   7.736   4.892 -0.4384 -0.0884  0.0588
 5475TIP3    H143348   5.089   7.781   4.969  0.8029 -0.9527  0.0283
 5475TIP3    H243349   4.961   7.761   4.890 -0.1065  1.3423  0.8179
 5476TIP3   OH243350   3.785   3.112   0.280  0.8765  0.1684  0.6680
 5476TIP3    H143351   3.751   3.152   0.360 -0.7274 -0.6824  0.4483
 5476TIP3    H243352   3.871   3.079   0.304 -0.0486 -1.1293  2.4344
 5477TIP3   OH243353   0.760   5.315   6.538 -0.6498  0.0954 -0.2446
 5477TIP3    H143354   0.775   5.391   6.481  0.6200  1.0446  1.2585
 5477TIP3    H243355   0.747   5.353   6.625  0.8515 -1.4155  0.7021
 5478TIP3   OH243356   7.987   3.591   1.373 -0.6444 -0.1762 -0.0608
 5478TIP3    H143357   8.063   3.535   1.386  0.2347  1.1567  0.7068
 5478TIP3    H243358   8.022   3.671   1.335 -1.6990  0.3904  0.1137
 5479TIP3   OH243359   5.238   0.316   0.401  0.5324 -0.4420  0.1821
 5479TIP3    H143360   5.287   0.380   0.350 -1.0525 -0.2217 -1.1196
 5479TIP3    H243361   5.269   0.329   0.491  1.8109  0.6355 -0.3760
 5480TIP3   OH243362   3.859   1.730   6.716  0.3445  0.6121  0.1470
 5480TIP3    H143363   3.954   1.717   6.712  0.4847  1.6010  0.0576
 5480TIP3    H243364   3.838   1.718   6.809  0.2635 -1.4005 -0.0900
 5481TIP3   OH243365   3.179   3.062   5.379 -0.5007 -0.1679  0.2131
 5481TIP3    H143366   3.229   3.049   5.298  0.6680  2.3919  0.4325
 5481TIP3    H243367   3.203   2.986   5.433  1.5699 -0.0992 -0.4823
 5482TIP3   OH243368   7.907   6.535   0.977  0.4916  0.3533  0.4698
 5482TIP3    H143369   7.927   6.594   0.905 -0.7017 -0.0902 -0.2693
 5482TIP3    H243370   7.975   6.468   0.973  1.4383  1.2625  0.8688
 5483TIP3   OH243371   4.109   3.234   1.141  0.0254  0.2191 -0.1445
 5483TIP3    H143372   4.077   3.192   1.220  0.3977 -0.8470 -0.5470
 5483TIP3    H243373   4.045   3.302   1.122 -1.1064 -0.7917 -0.0131
 5484TIP3   OH243374   0.852   4.907   6.126 -0.6150  0.2088 -0.1210
 5484TIP3    H143375   0.891   4.994   6.122  1.3082 -0.5793  0.4916
 5484TIP3    H243376   0.900   4.855   6.062  0.5320 -1.1994  1.7814
 5485TIP3   OH243377   7.583   3.858   1.571  0.0001 -0.6060  0.7147
 5485TIP3    H143378   7.637   3.898   1.640 -0.2834  1.3857 -0.1658
 5485TIP3    H243379   7.548   3.779   1.613  0.1203  0.3372  2.7515
 5486TIP3   OH243380   3.623   1.203   0.679 -0.3515  0.0601  0.3462
 5486TIP3    H143381   3.691   1.136   0.666  1.0214  1.4941 -0.2170
 5486TIP3    H243382   3.635   1.263   0.606 -2.3012  0.3494  0.2145
 5487TIP3   OH243383   4.661   2.955   1.709  0.1290  0.1803  0.3635
 5487TIP3    H143384   4.625   2.952   1.798 -1.0332 -0.6870 -0.1078
 5487TIP3    H243385   4.589   2.989   1.656  0.8344  0.7467 -0.2536
 5488TIP3   OH243386   5.109   1.514   0.988  0.0278 -0.0927  0.6042
 5488TIP3    H143387   5.157   1.561   1.057  0.2259  3.4279 -1.6546
 5488TIP3    H243388   5.022   1.501   1.025  0.5205  0.4002  2.0407
 5489TIP3   OH243389   5.913   5.211   5.794 -0.0189  0.0768  0.0102
 5489TIP3    H143390   5.975   5.280   5.818 -0.5825  1.2539 -1.7130
 5489TIP3    H243391   5.830   5.258   5.784 -0.6946 -1.0944  0.0253
 5490TIP3   OH243392   7.359   5.644   1.116  0.2294  0.2818  0.1152
 5490TIP3    H143393   7.318   5.710   1.173 -1.7250  0.1073 -0.9921
 5490TIP3    H243394   7.338   5.560   1.157  0.8931  0.2536  0.4024
 5491TIP3   OH243395   4.177   7.655   1.026 -0.2085 -0.1826  0.3208
 5491TIP3    H143396   4.270   7.647   1.008 -0.0217 -0.6292  1.4079
 5491TIP3    H243397   4.153   7.743   0.995  0.5852 -0.0378  0.1151
 5492TIP3   OH243398   0.196   4.027   6.692  0.1439  0.3409 -0.1087
 5492TIP3    H143399   0.287   4.027   6.721  0.5270 -0.9776 -1.1853
 5492TIP3    H243400   0.192   4.093   6.622  0.0148  1.1237  0.6258
 5493TIP3   OH243401   6.965   3.289   0.612  0.1025  0.0080  0.0929
 5493TIP3    H143402   6.913   3.338   0.548  2.4036  1.4205 -0.8108
 5493TIP3    H243403   6.941   3.328   0.697  1.0812  2.0484 -0.4987
 5494TIP3   OH243404   3.260   6.360   1.930 -0.4066 -0.2206 -0.0580
 5494TIP3    H143405   3.193   6.370   1.861 -1.3422  0.6165  0.9331
 5494TIP3    H243406   3.210   6.340   2.009  0.6476 -1.0371  0.4283
 5495TIP3   OH243407   5.081   5.299   6.037  0.3150 -0.9461 -0.1608
 5495TIP3    H143408   5.017   5.271   5.971  0.0336 -0.7083  0.0120
 5495TIP3    H243409   5.050   5.261   6.119 -0.6459  0.6951  0.2761
 5496TIP3   OH243410   0.061   7.268   0.651  0.2236 -0.3586 -0.2223
 5496TIP3    H143411   0.123   7.266   0.724 -0.0427  2.1427  0.1525
 5496TIP3    H243412   8.520   7.314   0.686 -1.1426 -1.7326 -1.2339
 5497TIP3   OH243413   2.294   2.190   6.827 -0.5564  0.3873  0.3513
 5497TIP3    H143414   2.297   2.095   6.820  0.0858  0.5193 -2.1300
 5497TIP3    H243415   2.209   2.215   6.792  0.1161  0.7963 -1.0834
 5498TIP3   OH243416   6.321   1.179   6.908  0.1375 -0.2967 -0.1687
 5498TIP3    H143417   6.314   1.214   6.997  2.7547 -0.4440  0.1969
 5498TIP3    H243418   6.371   1.097   6.919  0.0608 -0.5749 -1.7208
 5499TIP3   OH243419   2.981   4.610   6.127 -0.3522  0.0631  0.1379
 5499TIP3    H143420   3.033   4.607   6.046  2.4520 -0.5521  1.8049
 5499TIP3    H243421   2.956   4.702   6.136  0.2604  0.3508 -0.8832
 5500TIP3   OH243422   1.980   5.615   1.088 -0.1856 -0.9628 -0.5718
 5500TIP3    H143423   1.885   5.627   1.087  0.0536  1.6421 -2.2097
 5500TIP3    H243424   2.003   5.613   1.181 -1.5698  1.8766 -0.0720
 5501TIP3   OH243425   5.016   4.018   1.961  0.1105  0.3718 -0.1573
 5501TIP3    H143426   5.093   3.961   1.952  0.6617  0.6129  2.2916
 5501TIP3    H243427   4.942   3.962   1.940  0.7842 -0.6767  0.1830
 5502TIP3   OH243428   4.090   4.250   5.742  0.0401  0.3598  0.2744
 5502TIP3    H143429   4.049   4.242   5.655  1.1560 -0.7214 -0.1786
 5502TIP3    H243430   4.046   4.325   5.782 -0.9809  0.4579 -0.9562
 5503TIP3   OH243431   4.594   8.376   0.711 -0.4568  0.2011 -0.1323
 5503TIP3    H143432   4.688   8.360   0.707 -0.4498  0.1885  0.0363
 5503TIP3    H243433   4.554   8.292   0.688 -0.4189 -0.4470  1.9654
 5504TIP3   OH243434   0.277   6.366   0.468  0.1806  0.1412 -0.3011
 5504TIP3    H143435   0.274   6.304   0.541  2.3452  0.4438  0.1172
 5504TIP3    H243436   0.288   6.452   0.509  2.1544  0.2453 -0.9173
 5505TIP3   OH243437   5.862   0.795   5.601 -0.3831 -0.2853  0.2551
 5505TIP3    H143438   5.868   0.838   5.515 -2.5545 -0.9342 -0.2791
 5505TIP3    H243439   5.858   0.702   5.581  0.8402 -0.5597  1.2027
 5506TIP3   OH243440   8.311   5.201   0.181 -0.2349  0.4388  0.0833
 5506TIP3    H143441   8.347   5.162   0.261  0.3981 -1.6013 -1.1161
 5506TIP3    H243442   8.216   5.194   0.192 -0.1460 -0.5884  0.3453
 5507TIP3   OH243443   5.086   0.112   0.832 -0.9374  0.7715 -0.0880
 5507TIP3    H143444   5.081   0.205   0.851 -2.3056  0.5731  0.6069
 5507TIP3    H243445   5.161   0.081   0.884 -0.4747  1.4614 -0.3236
 5508TIP3   OH243446   5.491   5.348   6.832  0.0882 -0.2341  0.3121
 5508TIP3    H143447   5.437   5.425   6.850  1.9115  1.4174 -0.7832
 5508TIP3    H243448   5.440   5.274   6.863 -1.7496  1.4208  1.4394
 5509TIP3   OH243449   0.032   4.679   5.814 -0.7021  0.0372  0.3187
 5509TIP3    H143450   8.515   4.664   5.893 -1.4998  2.3847  0.3104
 5509TIP3    H243451   0.122   4.664   5.842 -1.1793 -2.2754  0.8051
 5510TIP3   OH243452   0.111   3.897   0.103 -0.4235  0.1823  1.0747
 5510TIP3    H143453   0.057   3.924   0.029 -0.0906 -0.3961  0.6146
 5510TIP3    H243454   0.082   3.808   0.123 -0.7563  0.4609  1.8731
 5511TIP3   OH243455   5.827   6.887   6.056  0.0107  0.3800 -0.4072
 5511TIP3    H143456   5.762   6.948   6.021 -0.7641 -0.6857 -0.8920
 5511TIP3    H243457   5.801   6.874   6.147  1.8732  2.9500  0.6145
 5512TIP3   OH243458   3.631   3.060   6.531  0.1888  0.3494  0.4438
 5512TIP3    H143459   3.659   2.987   6.585 -3.7513 -1.5413  0.2757
 5512TIP3    H243460   3.552   3.093   6.573 -0.5889  1.6559 -1.8343
 5513TIP3   OH243461   8.105   0.299   0.610  0.0601 -0.2539  0.2822
 5513TIP3    H143462   8.053   0.340   0.541 -0.9860  1.6855  2.1142
 5513TIP3    H243463   8.065   0.213   0.621 -0.3824 -0.2118 -0.8273
 5514TIP3   OH243464   3.810   7.925   1.124  0.3296 -0.4759 -0.1346
 5514TIP3    H143465   3.728   7.877   1.138  0.6234 -1.9139 -2.8363
 5514TIP3    H243466   3.782   8.012   1.097 -0.2574 -0.4852  0.3966
 5515TIP3   OH243467   5.527   7.423   0.269 -0.3788  0.5041 -0.8490
 5515TIP3    H143468   5.619   7.448   0.283 -0.2313 -0.1047 -0.7133
 5515TIP3    H243469   5.529   7.367   0.192 -0.2867 -1.5178  0.5622
 5516TIP3   OH243470   7.058   5.769   6.191 -0.3907 -0.3149 -0.7579
 5516TIP3    H143471   7.083   5.794   6.102 -1.2687  1.0336 -0.6504
 5516TIP3    H243472   6.977   5.817   6.208  0.7864  1.0399  1.4839
 5517TIP3   OH243473   8.209   5.011   6.970 -0.7250  0.1757 -0.3476
 5517TIP3    H143474   8.257   5.091   6.952  1.1927 -1.1151 -1.2221
 5517TIP3    H243475   8.271   4.955   7.016 -1.7653 -1.1076 -0.4360
 5518TIP3   OH243476   5.881   2.840   5.317 -0.3032  0.0259 -0.3493
 5518TIP3    H143477   5.825   2.858   5.393  0.4777  1.6658 -0.1106
 5518TIP3    H243478   5.828   2.866   5.241 -0.6790 -0.5668 -0.2941
 5519TIP3   OH243479   2.055   8.478   0.272  0.0314 -0.1161  0.3843
 5519TIP3    H143480   1.980   8.471   0.332 -0.2884 -0.0490  0.0010
 5519TIP3    H243481   2.086   0.033   0.283 -0.3342  0.0516  0.1011
 5520TIP3   OH243482   0.327   5.897   6.989  0.5061  0.1603 -0.5106
 5520TIP3    H143483   0.305   5.932   6.903  0.7803 -0.4546 -0.8368
 5520TIP3    H243484   0.394   5.831   6.973  2.3675  1.7327  0.4419
 5521TIP3   OH243485   3.279   4.209   5.869  0.1244  0.1623 -0.3299
 5521TIP3    H143486   3.185   4.225   5.877 -0.2687 -1.5540 -1.0342
 5521TIP3    H243487   3.293   4.191   5.776  1.1826  0.5559 -0.2610
 5522TIP3   OH243488   3.417   0.013   0.636 -0.2012 -0.1266 -0.1155
 5522TIP3    H143489   3.511   8.534   0.624 -0.1453 -0.4992  0.7066
 5522TIP3    H243490   3.386   8.471   0.683 -0.8260  0.2295  0.0799
 5523TIP3   OH243491   8.065   7.775   0.551 -0.1998  0.4397  0.3547
 5523TIP3    H143492   8.037   7.732   0.470  1.7590  0.5094 -0.4292
 5523TIP3    H243493   8.083   7.866   0.526  2.8737 -0.1065  0.1571
 5524TIP3   OH243494   5.019   5.581   2.159  0.6697  0.2906  0.2084
 5524TIP3    H143495   5.052   5.670   2.170  0.9687  0.0885  1.0007
 5524TIP3    H243496   4.933   5.592   2.119  1.0800  0.8910 -0.5470
 5525TIP3   OH243497   3.125   6.304   1.107  0.0063  0.3183  0.1252
 5525TIP3    H143498   3.062   6.346   1.166  0.0583  0.2918  0.2010
 5525TIP3    H243499   3.172   6.242   1.164  0.1132  0.3518  0.0736
 5526TIP3   OH243500   6.824   6.434   0.353 -0.0132  0.7074 -0.3150
 5526TIP3    H143501   6.753   6.372   0.372  0.1522  0.5243 -0.2960
 5526TIP3    H243502   6.782   6.503   0.301 -0.8020  1.9332  1.8034
 5527TIP3   OH243503   6.891   5.262   6.130 -0.0103 -0.1876  0.0494
 5527TIP3    H143504   6.879   5.229   6.041  0.8552  0.8432 -0.4739
 5527TIP3    H243505   6.812   5.235   6.177  0.4370 -2.5399 -0.4477
 5528TIP3   OH243506   1.519   4.939   5.504 -0.2981 -0.1954 -0.4310
 5528TIP3    H143507   1.561   5.003   5.447  0.9173 -1.8495 -1.4730
 5528TIP3    H243508   1.476   4.877   5.445 -1.0400 -0.6408  0.5293
 5529TIP3   OH243509   1.445   7.145   0.024  0.2533 -0.2961 -0.2544
 5529TIP3    H143510   1.464   7.207   7.024 -0.2579 -0.2607 -0.3677
 5529TIP3    H243511   1.362   7.104   7.069 -0.8412  0.9457  1.1370
 5530TIP3   OH243512   0.350   1.037   5.098  0.2375  0.1647 -0.0329
 5530TIP3    H143513   0.409   0.976   5.055  0.5070  2.1366 -2.7177
 5530TIP3    H243514   0.371   1.123   5.060 -2.3545  1.4233  1.0631
 5531TIP3   OH243515   2.461   1.811   6.869 -0.2965 -0.1203  0.3561
 5531TIP3    H143516   2.436   1.719   6.867 -1.5337  0.2124 -0.1960
 5531TIP3    H243517   2.381   1.859   6.847  0.2525  1.1081  0.8987
 5532TIP3   OH243518   2.199   5.936   6.080 -0.1976  0.7749 -0.1413
 5532TIP3    H143519   2.210   6.011   6.022  0.5736  0.3747 -0.5369
 5532TIP3    H243520   2.288   5.901   6.091 -0.3787  0.6505  1.0276
 5533TIP3   OH243521   7.333   3.229   5.986  0.3167  0.1132  0.2729
 5533TIP3    H143522   7.262   3.284   6.018  0.7814 -0.7127  2.9643
 5533TIP3    H243523   7.407   3.289   5.976 -0.1240  0.5713 -0.3119
 5534TIP3   OH243524   6.991   5.100   0.000 -0.2054  0.2326 -1.1357
 5534TIP3    H143525   7.069   5.062   0.040 -0.9261 -1.5043 -1.3140
 5534TIP3    H243526   6.927   5.029   0.000 -1.7542  1.5845 -1.1105
 5535TIP3   OH243527   8.495   0.634   0.215  0.0189  0.5564  0.4652
 5535TIP3    H143528   8.521   0.550   0.252 -0.8658  0.6255  1.2843
 5535TIP3    H243529   0.042   0.674   0.186  0.8042  0.5837  2.5579
 5536TIP3   OH243530   6.744   6.397   6.223 -0.1906 -0.3814 -0.2890
 5536TIP3    H143531   6.656   6.406   6.260 -0.3829 -0.9872 -0.5851
 5536TIP3    H243532   6.782   6.323   6.271 -0.1923 -0.7274 -0.8169
 5537TIP3   OH243533   3.388   6.841   6.373 -0.1786 -0.2118 -0.3872
 5537TIP3    H143534   3.302   6.851   6.332 -1.0059 -0.9931  1.0667
 5537TIP3    H243535   3.371   6.789   6.452  1.3205  1.2868  0.9877
 5538TIP3   OH243536   6.495   2.308   5.307  0.1383  0.3063 -0.2117
 5538TIP3    H143537   6.433   2.310   5.233 -0.0348 -0.2278 -0.0848
 5538TIP3    H243538   6.562   2.373   5.284 -0.5632  1.0215 -0.2642
 5539TIP3   OH243539   0.291   3.480   1.564 -0.4158 -0.1269  0.2609
 5539TIP3    H143540   0.198   3.473   1.546 -0.3220 -1.4773  0.2302
 5539TIP3    H243541   0.333   3.430   1.494  0.4703  2.1524 -0.9270
 5540TIP3   OH243542   5.416   6.761   2.158 -0.0914 -0.5189 -0.3143
 5540TIP3    H143543   5.425   6.742   2.251  1.9581  0.6878 -0.2172
 5540TIP3    H243544   5.471   6.696   2.115 -1.2736 -1.2682 -0.7569
 5541TIP3   OH243545   5.448   2.898   1.196  0.6553 -0.2475 -0.2915
 5541TIP3    H143546   5.467   2.933   1.283 -2.5359  2.0037 -0.3137
 5541TIP3    H243547   5.404   2.814   1.212 -1.3059  0.8619  0.4524
 5542TIP3   OH243548   0.494   7.049   0.697  0.2550 -0.4835 -0.7773
 5542TIP3    H143549   0.520   6.957   0.700  1.7845 -0.0542 -0.1418
 5542TIP3    H243550   0.575   7.096   0.677 -0.3489  0.7823 -0.3272
 5543TIP3   OH243551   2.837   3.060   5.218 -0.2033  0.3469 -0.5630
 5543TIP3    H143552   2.755   3.065   5.267 -1.0440 -1.6258 -1.6526
 5543TIP3    H243553   2.890   2.996   5.266 -0.3566 -0.3104 -1.2476
 5544TIP3   OH243554   7.590   7.115   6.618  0.3829  0.3430  0.5367
 5544TIP3    H143555   7.606   7.138   6.526 -1.7377  2.5344  0.5939
 5544TIP3    H243556   7.621   7.191   6.667 -0.8653  0.3363  1.3828
 5545TIP3   OH243557   5.920   5.099   5.437  0.1634 -0.5392 -0.5507
 5545TIP3    H143558   5.837   5.078   5.479 -0.4954 -1.1841 -2.0940
 5545TIP3    H243559   5.903   5.180   5.390  0.0824 -1.1571 -1.6370
 5546TIP3   OH243560   0.882   3.009   0.538  0.5878 -0.0804  0.3459
 5546TIP3    H143561   0.895   3.083   0.478 -2.2552  0.1346 -0.1909
 5546TIP3    H243562   0.835   2.944   0.486  1.5429 -1.5787  1.2929
 5547TIP3   OH243563   0.659   0.160   6.852 -0.8053 -0.1096  0.4075
 5547TIP3    H143564   0.573   0.138   6.817 -1.3073  1.9239  0.2189
 5547TIP3    H243565   0.720   0.139   6.782 -1.3087 -0.1736 -0.0120
 5548TIP3   OH243566   1.599   7.179   0.587 -0.2523 -0.0299 -0.1049
 5548TIP3    H143567   1.683   7.138   0.611 -0.6760 -0.6574  0.3155
 5548TIP3    H243568   1.547   7.108   0.551 -0.6472  0.3434 -0.2786
 5549TIP3   OH243569   8.324   2.627   1.610  0.2530  0.2748 -0.3931
 5549TIP3    H143570   8.240   2.669   1.591 -1.3828 -2.3906  0.4149
 5549TIP3    H243571   8.348   2.657   1.697 -0.8416 -0.3106  0.1290
 5550TIP3   OH243572   1.050   7.148   5.924  0.4308  0.2197 -0.0052
 5550TIP3    H143573   1.025   7.145   6.016  0.4869  0.7585  0.0362
 5550TIP3    H243574   1.081   7.238   5.911 -0.6262  0.4838 -0.8163
 5551TIP3   OH243575   4.987   3.400   0.703  0.0040  0.1157  0.4542
 5551TIP3    H143576   5.000   3.356   0.620 -0.0253  1.2086 -0.1553
 5551TIP3    H243577   5.075   3.427   0.729 -0.1958  1.5950 -0.2889
 5552TIP3   OH243578   1.911   8.503   1.407 -0.5118 -0.2331 -0.2827
 5552TIP3    H143579   1.844   8.500   1.476  1.1748 -1.4801  1.4165
 5552TIP3    H243580   1.930   0.061   1.396 -1.2150  0.0217  0.5501
 5553TIP3   OH243581   5.302   1.790   0.674  0.3046 -0.1500  0.2283
 5553TIP3    H143582   5.222   1.809   0.723 -0.3809  0.8893 -1.2135
 5553TIP3    H243583   5.373   1.823   0.729 -0.3814  0.2960  0.8638
 5554TIP3   OH243584   6.696   2.551   6.192 -0.3115 -0.6660 -0.0678
 5554TIP3    H143585   6.636   2.573   6.121 -0.1559 -0.9525 -0.2900
 5554TIP3    H243586   6.772   2.512   6.148 -0.6707 -1.8443  0.3319
 5555TIP3   OH243587   7.911   5.724   6.528  0.2941 -0.1089 -0.0344
 5555TIP3    H143588   7.855   5.745   6.454 -1.2257  0.1563  1.1272
 5555TIP3    H243589   7.916   5.805   6.579  0.1746 -0.6459  0.8576
 5556TIP3   OH243590   5.541   6.733   0.888  0.0844 -0.9447  0.0323
 5556TIP3    H143591   5.608   6.671   0.858 -0.9033 -2.4974  0.8663
 5556TIP3    H243592   5.458   6.690   0.867 -0.6348 -0.5874  1.9404
 5557TIP3   OH243593   1.043   6.586   5.595  0.1533  0.4275 -0.6810
 5557TIP3    H143594   1.054   6.525   5.522 -1.4747 -0.1779 -0.4486
 5557TIP3    H243595   0.989   6.539   5.658 -0.9265  2.0031 -0.3746
 5558TIP3   OH243596   2.446   1.226   1.161 -0.9572 -0.2010  0.0161
 5558TIP3    H143597   2.441   1.302   1.103 -0.0270  1.4026  1.9489
 5558TIP3    H243598   2.477   1.155   1.105  2.4314  1.8698 -0.9913
 5559TIP3   OH243599   3.038   6.993   0.708 -0.5397 -0.4332 -0.3835
 5559TIP3    H143600   3.098   6.939   0.759 -0.6404 -0.7022 -0.5522
 5559TIP3    H243601   2.952   6.954   0.723 -1.1478  1.5664  2.1170
 5560TIP3   OH243602   5.998   4.754   0.495  0.0557 -0.0518 -0.2818
 5560TIP3    H143603   6.079   4.805   0.508 -0.8573  1.3720  0.0838
 5560TIP3    H243604   5.943   4.810   0.441 -0.3800 -1.3801 -1.2659
 5561TIP3   OH243605   5.862   3.028   0.881 -0.6494 -0.2003 -0.6621
 5561TIP3    H143606   5.785   3.036   0.936 -0.3105  0.0209 -0.2172
 5561TIP3    H243607   5.889   2.937   0.890  2.1475  0.7495  3.3096
 5562TIP3   OH243608   8.135   6.808   1.541  0.0679  0.2053  0.6053
 5562TIP3    H143609   8.173   6.744   1.481 -1.4489  0.6029 -0.8657
 5562TIP3    H243610   8.194   6.809   1.616  0.8603 -1.9121  0.0736
 5563TIP3   OH243611   1.783   5.261   0.717 -0.0339 -0.1083  0.7698
 5563TIP3    H143612   1.747   5.328   0.776 -0.3937  1.8814 -1.5405
 5563TIP3    H243613   1.878   5.268   0.730 -0.0337  1.2684  0.1931
 5564TIP3   OH243614   6.040   0.939   5.244 -0.5728  0.2262  0.3653
 5564TIP3    H143615   6.032   0.940   5.149 -1.8829  2.7109  0.4257
 5564TIP3    H243616   5.972   0.880   5.274 -1.3000  0.7588 -0.2041
 5565TIP3   OH243617   2.452   3.199   4.921 -0.6247  0.3630 -0.0067
 5565TIP3    H143618   2.462   3.104   4.919  1.8771  0.5567 -1.9630
 5565TIP3    H243619   2.409   3.221   4.838  0.2906  1.0154 -0.3293
 5566TIP3   OH243620   4.933   4.793   6.839  0.0768 -0.6015  0.7957
 5566TIP3    H143621   4.957   4.805   6.931  0.2580 -1.5516  0.8849
 5566TIP3    H243622   4.837   4.793   6.839  0.0769 -0.7547  1.0040
 5567TIP3   OH243623   1.938   0.748   5.470  0.2003  0.6338 -0.4380
 5567TIP3    H143624   2.002   0.676   5.467  0.9590  1.3332 -1.4149
 5567TIP3    H243625   1.861   0.713   5.425  0.5048  0.3747 -0.7652
 5568TIP3   OH243626   0.933   0.721   0.433 -0.1495  0.2485  0.9096
 5568TIP3    H143627   0.995   0.654   0.461  1.1827  0.5843 -1.0316
 5568TIP3    H243628   0.938   0.719   0.337  0.1259  3.2828  0.7763
 5569TIP3   OH243629   5.245   2.474   6.074  0.2260 -0.1912  0.3236
 5569TIP3    H143630   5.158   2.500   6.047  0.7895  2.3403  0.7501
 5569TIP3    H243631   5.304   2.533   6.028  1.5893 -0.4361  1.6657
 5570TIP3   OH243632   4.461   6.891   1.589 -0.2186  0.3420  0.3086
 5570TIP3    H143633   4.463   6.981   1.622 -0.1162  0.4587 -0.0158
 5570TIP3    H243634   4.488   6.837   1.664 -1.9091  0.4141  1.0338
 5571TIP3   OH243635   7.844   3.561   1.139 -0.7080  0.7592 -0.7767
 5571TIP3    H143636   7.755   3.556   1.172 -0.3800 -1.2228 -0.0823
 5571TIP3    H243637   7.899   3.561   1.218 -0.0420 -0.2305 -1.2194
 5572TIP3   OH243638   6.072   3.129   1.673  0.1426 -0.5061 -0.6174
 5572TIP3    H143639   6.054   3.098   1.585  0.8919 -0.8331 -0.6629
 5572TIP3    H243640   5.989   3.118   1.720 -0.4330  0.2456 -1.4295
 5573TIP3   OH243641   2.557   4.087   5.020  0.0099  0.0111 -0.2074
 5573TIP3    H143642   2.538   4.176   5.051 -0.4018  0.1797 -0.9290
 5573TIP3    H243643   2.472   4.045   5.012  0.0689  0.0944 -1.4701
 5574TIP3   OH243644   1.200   3.016   6.844 -0.3888 -1.3278  0.1085
 5574TIP3    H143645   1.201   3.111   6.833  1.7888 -1.0238  2.0887
 5574TIP3    H243646   1.268   2.984   6.785 -0.9266 -1.6301 -0.3504
 5575TIP3   OH243647   3.412   7.362   0.051  0.5412  0.5230  0.0440
 5575TIP3    H143648   3.324   7.334   0.077  0.2088 -0.7631 -2.1790
 5575TIP3    H243649   3.404   7.456   0.035 -0.6598  0.2825 -0.9134
 5576TIP3   OH243650   1.365   4.376   0.235  0.8296 -0.2077  0.4119
 5576TIP3    H143651   1.382   4.467   0.209  1.3065  0.1686  1.9234
 5576TIP3    H243652   1.452   4.335   0.235  0.7772 -0.3209  0.9393
 5577TIP3   OH243653   7.169   3.487   1.829 -0.5494  0.1199  0.8451
 5577TIP3    H143654   7.109   3.485   1.904 -1.7129  1.5207  0.0306
 5577TIP3    H243655   7.209   3.401   1.827 -2.3976 -0.8135  1.5904
 5578TIP3   OH243656   7.868   8.332   6.886  0.2832 -0.4870 -0.1065
 5578TIP3    H143657   7.938   8.290   6.935  2.3387 -0.6138 -2.8464
 5578TIP3    H243658   7.900   8.331   6.795 -2.2368  1.6478 -1.1305
 5579TIP3   OH243659   0.631   0.525   6.685 -0.3624 -0.1060 -1.0597
 5579TIP3    H143660   0.713   0.488   6.652 -0.0806 -1.2320  0.7415
 5579TIP3    H243661   0.649   0.618   6.695  1.4314 -0.6020  1.1550
 5580TIP3   OH243662   2.740   1.056   6.056  0.7045 -0.2404 -0.7225
 5580TIP3    H143663   2.754   0.990   5.988 -1.8143 -0.6525 -0.9441
 5580TIP3    H243664   2.680   1.119   6.016  1.5492  1.1664  0.1491
 5581TIP3   OH243665   7.540   3.841   0.201 -0.5816 -0.5645 -0.1316
 5581TIP3    H143666   7.538   3.848   0.296 -1.4163 -0.9393 -0.1130
 5581TIP3    H243667   7.633   3.845   0.178 -0.2964 -1.5751  0.7848
 5582TIP3   OH243668   1.008   0.213   6.814  0.2730 -0.5066  0.0756
 5582TIP3    H143669   1.090   0.193   6.860 -1.6459 -1.9289  3.2095
 5582TIP3    H243670   0.968   0.127   6.800 -0.5377  0.1364 -1.7960
 5583TIP3   OH243671   6.603   6.909   6.435 -0.7793  0.0980 -0.1504
 5583TIP3    H143672   6.659   6.949   6.368  0.9303 -1.0975  0.5006
 5583TIP3    H243673   6.625   6.955   6.516 -1.7639  0.5309 -0.1093
 5584TIP3   OH243674   1.883   7.818   6.959 -0.0817 -0.3013  1.1818
 5584TIP3    H143675   1.891   7.797   6.866 -1.9207  0.0908  0.8862
 5584TIP3    H243676   1.918   7.741   7.004  0.6332 -0.5889  0.1742
 5585TIP3   OH243677   3.702   7.292   1.513  0.2773 -0.9875 -0.2769
 5585TIP3    H143678   3.774   7.353   1.499  0.1830 -0.6033  0.8289
 5585TIP3    H243679   3.664   7.280   1.427  0.1894  0.6565 -0.4984
 5586TIP3   OH243680   1.508   3.612   0.023 -0.1702  0.3404  0.4150
 5586TIP3    H143681   1.481   3.642   0.109 -1.0016  2.0203 -0.3939
 5586TIP3    H243682   1.529   3.692   7.046  0.6638 -0.5831 -0.8339
 5587TIP3   OH243683   4.341   1.478   6.502  0.2949 -0.1146 -0.2894
 5587TIP3    H143684   4.320   1.387   6.525  0.1294  0.2834  1.2703
 5587TIP3    H243685   4.257   1.515   6.474 -0.8512  0.8479  3.7917
 5588TIP3   OH243686   4.049   0.387   0.752 -0.0881  0.4736  0.4358
 5588TIP3    H143687   3.992   0.426   0.685  0.4194  1.1046  0.3657
 5588TIP3    H243688   4.129   0.440   0.750  0.9286 -1.0080 -0.1731
 5589TIP3   OH243689   5.408   7.056   5.793 -0.0831 -0.1211 -0.2104
 5589TIP3    H143690   5.328   7.011   5.767  0.9109 -1.9387 -0.3495
 5589TIP3    H243691   5.448   7.084   5.710 -0.5401  0.7446 -0.1439
 5590TIP3   OH243692   6.008   3.279   0.498  0.2014 -0.0930  0.1684
 5590TIP3    H143693   6.008   3.285   0.593  0.3838  1.4368  0.0877
 5590TIP3    H243694   5.919   3.301   0.473  0.4672  0.7440 -0.0687
 5591TIP3   OH243695   1.871   1.409   6.498  0.1696  1.1962  0.0849
 5591TIP3    H143696   1.784   1.427   6.463 -0.4121 -0.1825  0.7518
 5591TIP3    H243697   1.874   1.455   6.581 -0.2610  0.5493  0.4673
 5592TIP3   OH243698   1.264   5.653   1.455  0.0295 -0.9396 -0.0367
 5592TIP3    H143699   1.357   5.663   1.474 -0.0893  0.9378 -0.2806
 5592TIP3    H243700   1.249   5.559   1.459  2.3793 -1.5157 -2.0019
 5593TIP3   OH243701   5.908   0.530   0.691 -0.2129  0.0515  0.4285
 5593TIP3    H143702   5.956   0.453   0.722 -0.5805 -0.1192  0.5908
 5593TIP3    H243703   5.893   0.514   0.598  0.1225  0.1470  0.3589
 5594TIP3   OH243704   1.197   7.389   5.307  0.0754 -0.1492 -0.3527
 5594TIP3    H143705   1.258   7.459   5.330  0.8231 -1.2380  1.1714
 5594TIP3    H243706   1.237   7.309   5.342 -2.4039 -0.8627  1.1327
 5595TIP3   OH243707   3.980   3.167   0.902  0.7832  0.1673  0.0153
 5595TIP3    H143708   4.055   3.156   0.961  1.7318  0.8604 -0.9996
 5595TIP3    H243709   3.906   3.187   0.960  1.5377  0.1520  1.0078
 5596TIP3   OH243710   2.862   5.455   0.238 -0.3218 -0.2575  0.1561
 5596TIP3    H143711   2.856   5.479   0.146  2.0009  0.1992  0.0733
 5596TIP3    H243712   2.868   5.359   0.238 -2.3523 -0.4284  0.0182
 5597TIP3   OH243713   3.292   4.633   5.030 -0.0475  0.1702  0.5824
 5597TIP3    H143714   3.258   4.703   4.974  0.1417 -0.5565 -0.4589
 5597TIP3    H243715   3.352   4.584   4.975  1.0393  0.1155  1.7688
 5598TIP3   OH243716   4.537   0.175   6.309 -0.0225  0.0804  0.0313
 5598TIP3    H143717   4.498   0.183   6.222 -1.2475 -1.0213  0.4456
 5598TIP3    H243718   4.623   0.218   6.301  0.7077 -1.6275 -2.2214
 5599TIP3   OH243719   6.411   0.326   1.087 -0.1572  0.0363  0.9758
 5599TIP3    H143720   6.349   0.275   1.035 -1.3949 -0.0138  2.4262
 5599TIP3    H243721   6.374   0.325   1.176  0.6633  2.0621  1.3833
 5600TIP3   OH243722   4.982   1.242   0.852 -0.3093 -0.0684 -0.3343
 5600TIP3    H143723   5.077   1.236   0.849  0.0255  2.4387  1.6717
 5600TIP3    H243724   4.959   1.215   0.941 -1.6935 -2.1028 -1.2402
 5601TIP3   OH243725   0.879   4.799   7.068 -0.0339  0.5248 -0.9586
 5601TIP3    H143726   0.847   4.709   0.004  2.3278 -0.2794  1.0482
 5601TIP3    H243727   0.898   4.810   6.975 -0.8883 -0.8478 -1.3360
 5602TIP3   OH243728   5.079   7.154   6.898  0.3657  0.1126  0.1293
 5602TIP3    H143729   5.060   7.060   6.903  0.8267  0.0274  0.3137
 5602TIP3    H243730   5.140   7.162   6.824  1.8330  0.0052  1.2672
 5603TIP3   OH243731   1.269   7.620   0.680 -0.0754  0.1679 -0.0373
 5603TIP3    H143732   1.355   7.584   0.702 -0.7834 -1.6146 -0.0193
 5603TIP3    H243733   1.217   7.606   0.759 -1.0370 -1.0395 -0.8432
 5604TIP3   OH243734   2.932   0.858   1.401  0.2923 -0.6609 -0.0662
 5604TIP3    H143735   2.893   0.788   1.349  1.6757 -0.8965 -0.8228
 5604TIP3    H243736   2.942   0.820   1.488 -1.1501 -0.5802  0.1668
 5605TIP3   OH243737   2.736   0.117   6.444  0.3147 -0.9298 -0.2821
 5605TIP3    H143738   2.719   0.076   6.359  0.8493 -0.1203 -0.7873
 5605TIP3    H243739   2.747   0.210   6.425  0.6859 -0.7716  0.6405
 5606TIP3   OH243740   0.989   7.350   0.709 -0.2907 -0.8604 -0.1414
 5606TIP3    H143741   0.957   7.264   0.682  1.3955 -0.9427 -2.1170
 5606TIP3    H243742   1.041   7.381   0.635 -0.5457  1.7273  0.6618
 5607TIP3   OH243743   6.715   4.915   0.895  0.6732  0.2932  0.0322
 5607TIP3    H143744   6.799   4.885   0.930 -0.1438 -1.6901  0.4544
 5607TIP3    H243745   6.669   4.951   0.971  1.2799  1.8252 -0.2895
 5608TIP3   OH243746   4.738   0.596   1.566  0.2087  0.3760  0.6642
 5608TIP3    H143747   4.701   0.532   1.505 -0.2430 -0.4477  1.7828
 5608TIP3    H243748   4.829   0.568   1.577  0.2178  0.3686  0.5749
 5609TIP3   OH243749   1.263   1.394   0.091  0.2361 -0.1196 -0.4571
 5609TIP3    H143750   1.305   1.415   0.008  3.0930 -0.4531  0.8013
 5609TIP3    H243751   1.288   1.465   0.150 -0.2436 -0.7707  0.5752
 5610TIP3   OH243752   0.302   3.105   6.685  0.3794  0.0555 -0.1258
 5610TIP3    H143753   0.362   3.069   6.750  2.0088  0.2666 -1.4357
 5610TIP3    H243754   0.269   3.186   6.725  0.6137 -0.3052  0.8071
 5611TIP3   OH243755   4.878   1.299   1.380  0.4658 -0.6405 -0.4349
 5611TIP3    H143756   4.917   1.387   1.382 -1.2313  0.1522 -0.4790
 5611TIP3    H243757   4.828   1.294   1.462 -0.0346 -1.2804 -0.7736
 5612TIP3   OH243758   8.417   3.827   0.632  0.3332 -0.2610  0.4037
 5612TIP3    H143759   8.391   3.756   0.690 -0.1549 -1.4783 -1.2262
 5612TIP3    H243760   8.501   3.798   0.596  0.5468  0.3962  0.3665
 5613TIP3   OH243761   3.184   5.366   5.645 -0.4982  0.2849  0.9507
 5613TIP3    H143762   3.224   5.426   5.707  1.6097 -0.9195  0.8294
 5613TIP3    H243763   3.252   5.350   5.579 -0.5708 -3.0063  1.5230
 5614TIP3   OH243764   5.503   5.108   1.480 -0.3066  0.0829 -0.2183
 5614TIP3    H143765   5.565   5.130   1.549  0.1718 -1.2794 -0.1781
 5614TIP3    H243766   5.539   5.028   1.441 -2.3536 -1.1039  0.2207
 5615TIP3   OH243767   0.935   1.001   5.431  0.8409 -0.5969 -0.6005
 5615TIP3    H143768   0.997   1.062   5.472  0.4742  0.0866 -1.0491
 5615TIP3    H243769   0.968   0.988   5.342  1.3593 -1.6946 -0.2721
 5616TIP3   OH243770   4.042   0.256   0.430  0.2671 -0.1463 -0.5291
 5616TIP3    H143771   3.999   0.333   0.393  1.0574  0.5144 -0.1191
 5616TIP3    H243772   4.135   0.269   0.410  0.5607 -0.3532  0.6331
 5617TIP3   OH243773   1.128   1.165   7.051  0.5375 -0.0300 -0.5619
 5617TIP3    H143774   1.138   1.244   0.032  0.2463 -1.0250  1.0825
 5617TIP3    H243775   1.121   1.094   0.044  0.7690 -1.4006 -1.9680
 5618TIP3   OH243776   0.342   6.862   6.797 -0.3800  0.3761  0.0819
 5618TIP3    H143777   0.288   6.934   6.829  0.7573  0.1194  2.7951
 5618TIP3    H243778   0.423   6.905   6.767  0.8660  0.2594  2.9625
 5619TIP3   OH243779   5.323   4.111   0.975  0.7584 -0.3750 -0.3071
 5619TIP3    H143780   5.294   4.118   1.066 -0.1239 -1.1484 -0.5074
 5619TIP3    H243781   5.417   4.099   0.981  0.7504 -0.0837  0.4956
 5620TIP3   OH243782   2.735   4.341   6.954  0.5767  0.2635  0.0380
 5620TIP3    H143783   2.789   4.418   6.936  0.0737  0.2767 -1.6317
 5620TIP3    H243784   2.648   4.376   6.969  1.1116  0.3331  3.7995
 5621TIP3   OH243785   7.147   0.096   0.988  0.3468 -0.2104 -0.2746
 5621TIP3    H143786   7.056   0.070   0.973  0.9130 -1.9561 -0.8752
 5621TIP3    H243787   7.140   0.185   1.023 -1.6987 -0.9596  1.5177
 5622TIP3   OH243788   4.318   6.072   0.103 -0.0301  0.6374  0.1948
 5622TIP3    H143789   4.342   5.997   0.158 -0.2094  0.1776 -0.3463
 5622TIP3    H243790   4.386   6.074   0.035 -0.5140  0.4289 -0.2982
 5623TIP3   OH243791   5.144   7.286   1.215 -0.4805 -0.0018  0.0201
 5623TIP3    H143792   5.129   7.362   1.271  1.3256 -0.3675  1.0641
 5623TIP3    H243793   5.124   7.211   1.270  0.3820 -0.3395 -0.1158
 5624TIP3   OH243794   6.034   6.349   6.690  0.2269  0.5821  0.1592
 5624TIP3    H143795   6.055   6.441   6.705  0.9930  0.4974 -0.3356
 5624TIP3    H243796   5.957   6.332   6.745  0.3635  1.3902  0.6082
 5625TIP3   OH243797   4.202   2.976   0.540  0.0164  0.2429  0.0363
 5625TIP3    H143798   4.211   3.051   0.598 -1.9530  0.7378 -0.2283
 5625TIP3    H243799   4.134   2.922   0.581  1.5896 -1.6124  0.3910
 5626TIP3   OH243800   4.692   7.216   1.143  0.7515  0.1172  0.0325
 5626TIP3    H143801   4.759   7.283   1.156  0.7417  0.2720 -0.6610
 5626TIP3    H243802   4.667   7.225   1.051 -0.7500  0.5463  0.4633
 5627TIP3   OH243803   3.015   6.983   1.845  0.3272  0.0077  0.0162
 5627TIP3    H143804   3.058   6.965   1.761 -2.4113 -0.5013 -1.4171
 5627TIP3    H243805   2.937   7.035   1.821 -2.2593 -2.7380  1.7632
 5628TIP3   OH243806   0.308   0.175   1.076  0.3317  0.1120  0.0458
 5628TIP3    H143807   0.239   0.124   1.034  1.3435 -0.1058 -1.4394
 5628TIP3    H243808   0.349   0.114   1.137 -0.2492 -0.0092  0.3209
 5629TIP3   OH243809   3.025   2.571   5.839 -0.3738  0.7839  0.9209
 5629TIP3    H143810   3.097   2.600   5.783 -0.2351  0.4487  0.9246
 5629TIP3    H243811   2.978   2.651   5.861 -0.3059  0.9400  0.4932
 5630TIP3   OH243812   6.523   6.952   1.281 -0.8326  0.0691  0.2203
 5630TIP3    H143813   6.539   7.034   1.235  1.1781 -0.0360  0.6355
 5630TIP3    H243814   6.455   6.973   1.345 -1.1016  1.1316 -0.3886
 5631TIP3   OH243815   5.414   4.849   1.263  0.3835 -0.6875  0.4646
 5631TIP3    H143816   5.419   4.888   1.176 -2.1181  0.4953  0.7600
 5631TIP3    H243817   5.493   4.879   1.307  0.4094  0.9124 -0.5653
 5632TIP3   OH243818   7.512   5.232   1.541 -0.0133  0.8255  0.1083
 5632TIP3    H143819   7.604   5.257   1.536 -0.0846  0.9149 -0.7830
 5632TIP3    H243820   7.482   5.271   1.623  0.9972 -0.1053  0.9525
 5633TIP3   OH243821   2.106   3.502   0.594 -0.1937  0.1094 -0.3553
 5633TIP3    H143822   2.125   3.583   0.547 -0.6035  0.4060 -0.0097
 5633TIP3    H243823   2.113   3.434   0.527 -0.1286  0.4601 -0.7073
 5634TIP3   OH243824   0.934   6.425   6.553 -0.3582 -0.3662 -0.2025
 5634TIP3    H143825   0.994   6.488   6.594  0.6365 -0.9167 -0.7669
 5634TIP3    H243826   0.990   6.374   6.494 -1.0460 -2.0478  0.5254
 5635TIP3   OH243827   2.094   0.564   6.281  0.1231  0.6200 -0.1112
 5635TIP3    H143828   2.011   0.610   6.266 -1.0953 -1.0479  1.0132
 5635TIP3    H243829   2.138   0.615   6.348 -2.4151 -1.0103  3.1108
 5636TIP3   OH243830   8.111   6.812   5.552 -0.5099  0.4374 -0.1448
 5636TIP3    H143831   8.183   6.819   5.614 -0.6281  0.6790 -0.0325
 5636TIP3    H243832   8.135   6.872   5.481 -0.0300 -0.3812 -0.6834
 5637TIP3   OH243833   3.350   1.045   6.992 -1.1072 -1.2985 -0.3571
 5637TIP3    H143834   3.426   1.084   7.035 -2.5554 -0.6624  1.7772
 5637TIP3    H243835   3.335   1.101   6.915  0.2455 -1.1467 -0.5441
 5638TIP3   OH243836   6.905   5.941   1.314 -0.6893  0.5685 -0.2284
 5638TIP3    H143837   6.882   5.976   1.227 -0.0518  1.0588 -0.2088
 5638TIP3    H243838   6.877   6.010   1.375 -0.7534  0.4085 -0.0769
 5639TIP3   OH243839   1.473   1.082   5.859  0.1051 -0.1893  0.4555
 5639TIP3    H143840   1.564   1.059   5.879 -0.2261 -0.7394  1.4636
 5639TIP3    H243841   1.450   1.147   5.925 -0.0616  0.3802 -0.1607
 5640TIP3   OH243842   4.802   0.366   1.026 -0.4083 -0.1249 -0.8360
 5640TIP3    H143843   4.878   0.339   0.974  1.3387  1.4851  0.7051
 5640TIP3    H243844   4.804   0.461   1.022 -1.6703 -0.0388  0.2093
 5641TIP3   OH243845   7.306   1.369   1.238 -0.0288  0.1667  0.4685
 5641TIP3    H143846   7.339   1.307   1.303 -1.6138  0.4150  1.5639
 5641TIP3    H243847   7.211   1.366   1.248 -0.2353  1.3156 -0.8366
 5642TIP3   OH243848   0.042   8.128   6.152 -0.5145 -0.0740 -0.3164
 5642TIP3    H143849   8.522   8.153   6.226 -2.2894 -1.5791 -1.0502
 5642TIP3    H243850   0.082   8.046   6.179  0.2679  0.2962 -0.3402
 5643TIP3   OH243851   4.268   3.942   0.936 -0.1671  0.2960 -0.4491
 5643TIP3    H143852   4.346   3.943   0.992 -0.1725  0.5389 -0.4427
 5643TIP3    H243853   4.218   4.019   0.964 -0.3236  0.2404 -0.5747
 5644TIP3   OH243854   7.461   1.922   6.014  0.1206 -0.7056 -0.1992
 5644TIP3    H143855   7.443   1.926   5.920  0.7140  0.7826 -0.2845
 5644TIP3    H243856   7.374   1.921   6.054 -0.1429 -0.8759 -0.7609
 5645TIP3   OH243857   1.957   8.484   5.163  0.5609  0.0899  0.0637
 5645TIP3    H143858   1.881   8.535   5.136  0.0706  0.1506  1.4566
 5645TIP3    H243859   2.000   0.004   5.229  1.6044 -0.1095 -0.4268
 5646TIP3   OH243860   8.490   5.882   5.542 -0.0345  0.7420 -0.5180
 5646TIP3    H143861   0.047   5.905   5.555  0.2119 -1.1819  1.8587
 5646TIP3    H243862   8.491   5.826   5.464  0.6376  1.4910 -1.0664
 5647TIP3   OH243863   8.075   6.324   0.555 -0.2173  0.0776 -0.0594
 5647TIP3    H143864   8.059   6.401   0.609  2.3193 -0.4157  1.5402
 5647TIP3    H243865   8.123   6.357   0.479  0.6799  0.1203  0.5208
 5648TIP3   OH243866   3.282   5.700   0.334 -0.6515  0.0639  0.3389
 5648TIP3    H143867   3.190   5.710   0.310 -0.9947  1.1543  1.9734
 5648TIP3    H243868   3.320   5.650   0.262 -2.8645 -1.8042  0.3514
 5649TIP3   OH243869   2.238   4.851   0.605  0.6611  0.2966 -0.1543
 5649TIP3    H143870   2.236   4.759   0.633  1.4232  0.1566 -0.5233
 5649TIP3    H243871   2.236   4.901   0.686 -1.4082  0.0093  0.0235
 5650TIP3   OH243872   2.052   3.600   5.830 -0.2909 -0.6512 -0.3346
 5650TIP3    H143873   2.041   3.505   5.840  0.4459 -0.7311 -0.1453
 5650TIP3    H243874   2.138   3.617   5.869 -1.9614  0.6592  3.1040
 5651TIP3   OH243875   7.368   4.554   5.947 -0.5102  0.0161 -0.8571
 5651TIP3    H143876   7.355   4.585   5.858  0.7376  0.0780 -1.0218
 5651TIP3    H243877   7.410   4.627   5.993 -0.9372 -0.0957 -0.2625
 5652TIP3   OH243878   0.889   6.904   5.896  0.1305  0.1216  0.0670
 5652TIP3    H143879   0.953   6.975   5.887 -0.3538  0.8967  2.1673
 5652TIP3    H243880   0.814   6.945   5.940 -0.5478 -1.4829  0.4642
 5653TIP3   OH243881   6.992   3.729   0.564 -0.6244 -0.5721  0.4544
 5653TIP3    H143882   7.057   3.746   0.632 -0.5778  0.1559  0.2359
 5653TIP3    H243883   6.937   3.808   0.563  0.0880 -0.0521 -1.1431
 5654TIP3   OH243884   5.922   8.422   0.103  0.0559 -0.6417 -0.7026
 5654TIP3    H143885   5.996   8.416   0.164 -0.3934  1.2017  0.0921
 5654TIP3    H243886   5.955   8.383   0.022  1.6566 -0.5138 -0.1579
 5655TIP3   OH243887   0.320   5.732   6.017  0.2931 -0.2015  0.1732
 5655TIP3    H143888   0.252   5.745   6.084 -0.9344  0.7549 -1.1790
 5655TIP3    H243889   0.310   5.640   5.991  1.6762 -0.9718  2.1783
 5656TIP3   OH243890   8.110   1.947   1.090 -0.3616 -0.3231 -0.1016
 5656TIP3    H143891   8.113   2.042   1.101  1.0835 -0.5719  2.4238
 5656TIP3    H243892   8.017   1.925   1.099 -0.6405  0.8009 -0.0627
 5657TIP3   OH243893   1.891   3.766   6.991 -0.3185  0.1015  0.1808
 5657TIP3    H143894   1.803   3.799   6.970 -0.0311  0.8574  0.1186
 5657TIP3    H243895   1.929   3.835   7.046  0.9086  0.6696 -1.2933
 5658TIP3   OH243896   4.389   0.947   0.173 -0.0065  0.2353  0.4477
 5658TIP3    H143897   4.320   0.978   0.114 -0.3112  0.8845  1.1345
 5658TIP3    H243898   4.464   1.004   0.155  0.8567 -1.3371 -1.2879
 5659TIP3   OH243899   2.991   1.065   1.233  0.0965  0.3333 -0.0923
 5659TIP3    H143900   2.980   1.155   1.263  0.4594 -0.3585  2.2652
 5659TIP3    H243901   2.960   1.011   1.305  1.0430 -1.4489 -0.9515
 5660TIP3   OH243902   5.611   0.165   0.104 -0.1628 -0.7747  0.4712
 5660TIP3    H143903   5.700   0.146   0.075  0.1084 -1.5451  1.7378
 5660TIP3    H243904   5.563   0.184   0.023  1.0654 -0.6751 -0.2555
 5661TIP3   OH243905   4.498   4.847   5.971  0.5163  0.6721  0.3422
 5661TIP3    H143906   4.411   4.851   5.931 -0.5787 -1.5277  2.2802
 5661TIP3    H243907   4.527   4.756   5.957  1.1577  0.5256  2.3198
 5662TIP3   OH243908   1.512   6.889   0.206 -0.2735  0.4197 -0.0827
 5662TIP3    H143909   1.504   6.827   0.134  1.2606  0.0167  0.0394
 5662TIP3    H243910   1.483   6.973   0.170 -0.9179 -0.0678 -0.7104
 5663TIP3   OH243911   5.989   7.858   0.234  0.3014 -0.2829 -0.0364
 5663TIP3    H143912   5.997   7.871   0.329 -0.3019 -0.1160 -0.0073
 5663TIP3    H243913   5.913   7.910   0.209 -0.0999 -1.0629 -0.4624
 5664TIP3   OH243914   4.621   3.020   6.560 -0.3671 -0.0472 -0.6881
 5664TIP3    H143915   4.615   3.086   6.629  0.1187  0.5789 -1.2306
 5664TIP3    H243916   4.579   2.943   6.597 -1.9466  0.8895 -0.4485
 5665TIP3   OH243917   1.038   8.529   1.498 -0.2111 -0.1079 -0.2608
 5665TIP3    H143918   1.001   0.009   1.585 -0.7494 -1.2817 -0.2689
 5665TIP3    H243919   1.128   8.504   1.514 -0.2102  0.0178 -0.0635
 5666TIP3   OH243920   0.513   0.863   5.501 -0.0986 -0.7049 -0.3391
 5666TIP3    H143921   0.599   0.825   5.484  0.0407 -0.2478 -0.7121
 5666TIP3    H243922   0.512   0.943   5.448 -1.2215 -1.3270 -1.3131
 5667TIP3   OH243923   3.416   3.738   6.061 -0.1227  0.0830  0.5246
 5667TIP3    H143924   3.352   3.694   6.003 -0.0785  1.8742 -0.9808
 5667TIP3    H243925   3.362   3.788   6.122 -0.1550 -0.3631  0.8684
 5668TIP3   OH243926   0.990   6.226   6.385 -0.1487 -0.4461 -0.0179
 5668TIP3    H143927   0.922   6.193   6.327 -1.0213  0.6762  0.3366
 5668TIP3    H243928   0.989   6.167   6.460  1.0485 -1.9615 -1.1241
 5669TIP3   OH243929   5.720   8.319   6.398 -0.7260 -0.4407 -0.1229
 5669TIP3    H143930   5.749   8.293   6.310  1.8007  2.3926 -0.2991
 5669TIP3    H243931   5.783   8.276   6.457  1.7528  2.5835 -0.2649
 5670TIP3   OH243932   5.536   2.129   6.396 -0.1751  0.5351 -0.1294
 5670TIP3    H143933   5.509   2.115   6.305 -0.6973 -0.1557  0.1202
 5670TIP3    H243934   5.495   2.057   6.444 -0.3676  1.2128  0.7422
 5671TIP3   OH243935   7.067   1.377   1.394 -0.0428  0.2798 -0.7257
 5671TIP3    H143936   7.002   1.447   1.390  0.1966  0.5472 -0.0846
 5671TIP3    H243937   7.082   1.364   1.487 -1.7047 -2.1418 -0.6839
 5672TIP3   OH243938   6.348   1.224   1.056  0.0676  0.1166 -0.0608
 5672TIP3    H143939   6.411   1.285   1.096 -0.1648 -1.0093  2.2153
 5672TIP3    H243940   6.401   1.167   1.000  0.8367  0.2012  0.5640
 5673TIP3   OH243941   5.192   7.630   6.285  0.1650  0.3546  0.4006
 5673TIP3    H143942   5.287   7.644   6.279  0.2688  0.3369  1.8079
 5673TIP3    H243943   5.157   7.673   6.207  1.1622  2.0196  0.8218
 5674TIP3   OH243944   5.594   8.523   5.692  0.1116 -0.0541 -0.5996
 5674TIP3    H143945   5.576   8.483   5.777  1.1019 -1.1909 -0.8969
 5674TIP3    H243946   5.566   8.458   5.628  0.8818  0.0894 -1.1080
 5675TIP3   OH243947   7.674   5.377   5.995  0.0881 -0.5281 -0.1175
 5675TIP3    H143948   7.664   5.468   6.022 -0.9185 -0.8260  0.5490
 5675TIP3    H243949   7.715   5.382   5.909 -0.5710  0.5717 -0.3814
 5676TIP3   OH243950   3.344   2.160   0.064  0.1800  0.2542  0.6938
 5676TIP3    H143951   3.404   2.194   7.069 -1.3321 -1.4734 -1.7698
 5676TIP3    H243952   3.399   2.117   0.128  1.6689 -2.8304 -2.3806
 5677TIP3   OH243953   5.495   6.994   0.965 -0.0197  0.1902  0.2893
 5677TIP3    H143954   5.520   6.904   0.945  1.0978  0.5743 -0.1452
 5677TIP3    H243955   5.497   6.999   1.060  0.8732  0.0098  0.2832
 5678TIP3   OH243956   7.513   5.546   4.691  0.1296  0.4028  0.3355
 5678TIP3    H143957   7.550   5.562   4.605 -0.4112  2.8099  0.4863
 5678TIP3    H243958   7.586   5.515   4.744  0.9032  0.7669 -0.5025
 5679TIP3   OH243959   1.245   0.790   0.432  0.5065 -0.7619  0.0336
 5679TIP3    H143960   1.281   0.712   0.390  0.4534 -0.1759 -1.1589
 5679TIP3    H243961   1.299   0.804   0.510  0.0196 -2.4186  0.7057
 5680TIP3   OH243962   4.850   7.434   1.167  0.2142 -0.1028 -0.5565
 5680TIP3    H143963   4.798   7.513   1.177  2.8274  1.5334  1.2544
 5680TIP3    H243964   4.910   7.454   1.094 -0.1416 -1.0693 -1.1353
 5681TIP3   OH243965   0.397   4.804   4.928  0.2619 -0.5824 -0.1137
 5681TIP3    H143966   0.405   4.887   4.881  0.8433 -1.9603 -2.6191
 5681TIP3    H243967   0.458   4.812   5.002 -0.1023  1.3903  0.0178
 5682TIP3   OH243968   2.167   2.356   6.247  0.3991 -0.1412 -0.4744
 5682TIP3    H143969   2.186   2.267   6.216 -0.1958 -0.3471 -0.2622
 5682TIP3    H243970   2.237   2.374   6.311  0.0907 -0.7557  0.0479
 5683TIP3   OH243971   3.086   0.987   7.012 -0.0990 -0.4710 -0.9205
 5683TIP3    H143972   3.067   0.900   6.976 -0.7708 -0.8083  0.1936
 5683TIP3    H243973   3.180   0.998   7.000  0.4072 -2.2790  0.8272
 5684TIP3   OH243974   2.601   1.664   5.532  0.1891  0.8648  0.1401
 5684TIP3    H143975   2.545   1.680   5.456  0.5039  0.2843 -0.2195
 5684TIP3    H243976   2.557   1.593   5.579  2.0793 -1.7349 -1.7241
 5685TIP3   OH243977   4.545   7.712   4.821 -0.0419  0.8233 -0.0595
 5685TIP3    H143978   4.494   7.631   4.817 -1.2521  1.5204  0.6398
 5685TIP3    H243979   4.479   7.782   4.824  0.9765  1.8439 -0.6389
 5686TIP3   OH243980   3.024   7.349   1.119 -0.3197 -0.3345 -0.5527
 5686TIP3    H143981   2.955   7.415   1.120 -0.8295 -0.8574 -0.4280
 5686TIP3    H243982   3.010   7.298   1.199  0.5037 -0.1545 -0.2885
 5687TIP3   OH243983   4.374   0.201   0.209 -0.3945  0.5878  0.2561
 5687TIP3    H143984   4.384   0.236   0.298  0.3698 -1.3814  0.9872
 5687TIP3    H243985   4.329   0.118   0.220  1.1259 -0.4657 -1.0067
 5688TIP3   OH243986   4.720   6.555   6.559  0.2745 -0.2313 -0.0190
 5688TIP3    H143987   4.652   6.622   6.548  0.7430  0.1450 -0.6694
 5688TIP3    H243988   4.681   6.475   6.526  0.8959  0.4287 -2.5554
 5689TIP3   OH243989   1.934   0.656   5.947 -0.0519  0.2538 -0.4836
 5689TIP3    H143990   1.925   0.730   6.007 -1.2154  0.6490 -1.1219
 5689TIP3    H243991   1.946   0.696   5.861 -2.7043 -0.2310 -1.1469
 5690TIP3   OH243992   1.185   2.979   0.171  0.5491  0.1693  0.3582
 5690TIP3    H143993   1.251   2.914   0.147  0.9081  0.4610  0.5424
 5690TIP3    H243994   1.150   3.010   0.088 -0.7837 -1.4213  0.2859
 5691TIP3   OH243995   7.630   1.937   1.026 -0.3620 -0.3691 -0.7111
 5691TIP3    H143996   7.556   1.934   0.966 -1.5460 -0.7904  0.7139
 5691TIP3    H243997   7.610   2.009   1.086  0.6086 -0.1968 -0.5748
 5692TIP3   OH243998   0.852   1.705   4.993  0.3705  0.0553  0.2178
 5692TIP3    H143999   0.828   1.784   5.041  2.0222 -0.0287  1.2643
 5692TIP3    H244000   0.807   1.714   4.909  0.7998  2.2794  0.1555
 5693TIP3   OH244001   4.493   7.103   5.889 -0.1565 -0.1823 -0.2299
 5693TIP3    H144002   4.542   7.074   5.812  0.4112  0.8972 -0.2997
 5693TIP3    H244003   4.526   7.050   5.961  2.4189  1.6424  0.0597
 5694TIP3   OH244004   4.015   7.790   6.597 -0.4446 -0.2599  0.2997
 5694TIP3    H144005   4.017   7.702   6.561  0.3432  0.2419 -0.9182
 5694TIP3    H244006   4.106   7.811   6.617 -0.4174  0.8189 -0.8114
 5695TIP3   OH244007   0.491   2.441   0.107  0.1595 -0.9114 -0.0538
 5695TIP3    H144008   0.562   2.425   0.170 -0.3474  2.0263  1.4205
 5695TIP3    H244009   0.430   2.369   0.122  1.5920 -2.0781  0.4596
 5696TIP3   OH244010   6.508   7.055   5.224  0.5851  0.0703  0.3906
 5696TIP3    H144011   6.527   7.136   5.177 -0.6780  0.3962  0.4018
 5696TIP3    H244012   6.429   7.021   5.183  0.3034 -0.4212  1.3036
 5697TIP3   OH244013   4.690   1.090   6.633 -0.6860 -0.4069  0.5018
 5697TIP3    H144014   4.750   1.051   6.570 -1.1922 -0.8894  0.3077
 5697TIP3    H244015   4.603   1.061   6.605 -1.2801  2.2174 -0.6454
 5698TIP3   OH244016   7.373   6.831   1.396  0.6612  0.8455  0.0965
 5698TIP3    H144017   7.287   6.861   1.427  0.5658 -1.2748  2.1441
 5698TIP3    H244018   7.406   6.904   1.343 -2.2687  1.8200 -0.5717
 5699TIP3   OH244019   8.326   3.681   6.174  0.0658  0.0481 -0.0899
 5699TIP3    H144020   8.390   3.631   6.224  0.3957 -1.4229 -1.8704
 5699TIP3    H244021   8.361   3.770   6.172  2.5281 -0.8410 -1.6246
 5700TIP3   OH244022   4.361   2.237   0.665  0.3010  0.1386 -0.1560
 5700TIP3    H144023   4.408   2.188   0.732  2.3904  0.6826 -1.1454
 5700TIP3    H244024   4.269   2.229   0.690  0.7990 -1.8070  1.3281
 5701TIP3   OH244025   3.800   4.746   6.439  0.0916  0.0146  0.1518
 5701TIP3    H144026   3.737   4.755   6.367  2.1521 -0.5543 -1.8507
 5701TIP3    H244027   3.870   4.807   6.417  0.4602  0.3548  2.1039
 5702TIP3   OH244028   3.737   1.943   0.727 -0.1222  0.2620 -0.1459
 5702TIP3    H144029   3.679   1.889   0.674  0.1096 -0.3647  0.2341
 5702TIP3    H244030   3.730   1.907   0.816  1.3933 -0.3074 -0.2182
 5703TIP3   OH244031   3.171   5.925   6.135  0.1703 -0.0222  0.7627
 5703TIP3    H144032   3.259   5.888   6.121 -0.0409 -0.2885  0.0541
 5703TIP3    H244033   3.186   6.019   6.145  0.5155 -0.0292  0.3566
 5704TIP3   OH244034   5.903   3.298   5.910  0.0463  0.5232 -0.4323
 5704TIP3    H144035   5.824   3.336   5.871  0.9899  1.8244 -1.1577
 5704TIP3    H244036   5.908   3.210   5.873 -0.9768  0.4638 -0.4776
 5705TIP3   OH244037   3.673   3.973   5.682  0.5517 -0.1560 -0.3269
 5705TIP3    H144038   3.612   3.936   5.746  0.6098  1.4736  0.7426
 5705TIP3    H244039   3.711   3.898   5.637  0.8499 -1.3953  1.8855
 5706TIP3   OH244040   0.676   4.140   0.489  0.0028  0.2635 -0.1381
 5706TIP3    H144041   0.642   4.077   0.426 -0.6076  2.0985 -1.7648
 5706TIP3    H244042   0.771   4.142   0.472 -0.2585  1.4321 -1.7859
 5707TIP3   OH244043   6.188   5.558   0.584  0.4788 -0.4203  0.1711
 5707TIP3    H144044   6.114   5.576   0.643 -0.1923 -0.8996 -0.5079
 5707TIP3    H244045   6.265   5.589   0.632 -0.0795 -0.5862  1.1951
 5708TIP3   OH244046   5.616   4.063   0.097  0.4517 -0.0868 -0.1414
 5708TIP3    H144047   5.661   4.126   0.040  0.0937  0.1190 -0.1969
 5708TIP3    H244048   5.613   3.982   0.045 -0.7712  0.3815 -0.8249
 5709TIP3   OH244049   8.450   2.856   0.984 -0.3339 -0.2699 -0.0411
 5709TIP3    H144050   8.503   2.901   1.050 -0.9285 -0.0342  0.2748
 5709TIP3    H244051   8.364   2.847   1.023 -1.1316  1.2096 -1.3252
 5710TIP3   OH244052   2.597   6.732   1.822  0.2216  0.0747 -0.0402
 5710TIP3    H144053   2.563   6.644   1.807  0.1373 -0.2895  1.9898
 5710TIP3    H244054   2.665   6.721   1.888  0.6242  1.4674 -0.1820
 5711TIP3   OH244055   0.297   2.156   0.496 -0.4137 -0.1655  0.3630
 5711TIP3    H144056   0.247   2.157   0.414 -1.5251  0.2937  1.0262
 5711TIP3    H244057   0.369   2.216   0.480 -0.8796  0.2799 -0.1364
 5712TIP3   OH244058   0.217   5.003   5.965 -0.2140  0.0934  0.3882
 5712TIP3    H144059   0.297   5.055   5.972 -0.9318  1.2397  0.3022
 5712TIP3    H244060   0.210   4.982   5.872 -1.7011  2.8268 -0.2281
 5713TIP3   OH244061   6.220   8.501   1.055  0.3799 -0.3024  0.5817
 5713TIP3    H144062   6.156   8.528   1.120  2.4860  2.6864  1.6395
 5713TIP3    H244063   6.242   0.046   1.008  2.5357 -1.4059 -0.4644
 5714TIP3   OH244064   2.146   3.427   6.030  0.2710 -0.1676  0.0707
 5714TIP3    H144065   2.193   3.507   6.055 -1.0511  0.8072 -0.4207
 5714TIP3    H244066   2.215   3.365   6.006  1.3175  1.0982 -0.3334
 5715TIP3   OH244067   2.979   7.973   5.775  0.0032  0.2717  0.1277
 5715TIP3    H144068   2.987   7.880   5.797  1.3639 -0.0532 -1.5288
 5715TIP3    H244069   3.067   7.999   5.749 -0.7673  1.5046 -1.3746
 5716TIP3   OH244070   4.849   2.588   6.663  0.1363  0.6163  0.1212
 5716TIP3    H144071   4.932   2.561   6.623  0.3726  0.4731  0.7081
 5716TIP3    H244072   4.843   2.537   6.743  0.2977  1.8400  0.9392
 5717TIP3   OH244073   1.370   5.509   0.479 -0.1193 -0.1226  0.1713
 5717TIP3    H144074   1.357   5.604   0.489 -0.6277 -0.3480  2.1674
 5717TIP3    H244075   1.456   5.492   0.517  0.8183 -0.2522 -1.9101
 5718TIP3   OH244076   6.791   5.919   6.191  0.3783 -0.8317 -0.5052
 5718TIP3    H144077   6.720   5.885   6.245  0.0535  0.0557 -0.3537
 5718TIP3    H244078   6.807   5.850   6.126 -0.3863 -1.1848 -0.3291
 5719TIP3   OH244079   6.463   1.694   6.467 -0.4524 -0.2289 -0.1399
 5719TIP3    H144080   6.535   1.735   6.515  0.8722  0.0161 -2.2059
 5719TIP3    H244081   6.505   1.648   6.395 -2.4129  0.5099 -1.8523
 5720TIP3   OH244082   7.468   6.155   6.127  0.8277 -0.1451  0.6481
 5720TIP3    H144083   7.494   6.106   6.048  1.8325  0.7327  0.4208
 5720TIP3    H244084   7.379   6.124   6.146 -0.1159  0.8142 -1.8090
 5721TIP3   OH244085   4.881   3.109   6.573 -0.5396 -0.4934 -0.2435
 5721TIP3    H144086   4.940   3.082   6.502  0.2278  0.3279  0.0654
 5721TIP3    H244087   4.794   3.098   6.536 -0.1564 -0.2781 -1.2567
 5722TIP3   OH244088   4.158   3.382   6.762 -0.4197  0.3501 -0.0679
 5722TIP3    H144089   4.238   3.377   6.814 -0.3216  0.0382 -0.2440
 5722TIP3    H244090   4.189   3.379   6.671 -0.6091  0.5587 -0.1382
 5723TIP3   OH244091   3.376   1.157   1.165 -0.0876  0.5846 -0.0760
 5723TIP3    H144092   3.470   1.144   1.172 -0.1067  0.2236 -0.4772
 5723TIP3    H244093   3.348   1.179   1.255 -0.1505 -2.6641  0.8055
 5724TIP3   OH244094   6.628   5.312   6.259 -0.1188 -0.1636 -0.0611
 5724TIP3    H144095   6.598   5.242   6.317  0.8114 -0.4354  0.1117
 5724TIP3    H244096   6.611   5.392   6.307  0.3422 -0.3703  0.4561
 5725TIP3   OH244097   2.284   8.025   0.443 -0.8309  0.8598  0.2667
 5725TIP3    H144098   2.232   8.105   0.456 -1.7564  0.3931 -0.4329
 5725TIP3    H244099   2.225   7.966   0.396 -0.2116 -0.2917  0.8943
 5726TIP3   OH244100   7.370   2.191   1.206 -0.5049 -0.2273 -0.4860
 5726TIP3    H144101   7.449   2.194   1.151  1.2627  1.3336  1.9079
 5726TIP3    H244102   7.310   2.254   1.166  0.4042  0.2746 -1.0920
 5727TIP3   OH244103   5.006   6.415   5.384 -0.1918 -0.1780 -0.3052
 5727TIP3    H144104   4.923   6.423   5.337 -0.6408 -2.1489  0.0535
 5727TIP3    H244105   5.022   6.321   5.387  1.4158  0.1029  0.7535
 5728TIP3   OH244106   7.945   5.769   5.362  0.6811 -0.5054 -0.0812
 5728TIP3    H144107   7.948   5.692   5.305 -3.4812 -1.4480  0.6178
 5728TIP3    H244108   7.894   5.833   5.313  2.2083  1.0354  0.2561
 5729TIP3   OH244109   7.959   5.089   5.393  0.1334 -1.0280  0.4093
 5729TIP3    H144110   8.000   5.003   5.392  2.3419 -0.0381  0.9847
 5729TIP3    H244111   8.023   5.147   5.351  0.2881  0.9627  3.1265
 5730TIP3   OH244112   0.393   4.775   6.459 -0.3881 -0.0265 -0.5392
 5730TIP3    H144113   0.364   4.860   6.427 -2.3530 -0.8478 -1.0620
 5730TIP3    H244114   0.475   4.759   6.411  1.3184  2.5256  1.2769
 5731TIP3   OH244115   1.498   2.802   5.191  0.1407  0.1025  0.0953
 5731TIP3    H144116   1.520   2.755   5.111 -2.0045 -0.0152 -0.4824
 5731TIP3    H244117   1.449   2.737   5.243 -0.2441  0.7844  0.5983
 5732TIP3   OH244118   5.575   6.083   1.194 -0.3699 -0.1097  0.3552
 5732TIP3    H144119   5.556   5.993   1.167  0.7288 -0.3174  0.2209
 5732TIP3    H244120   5.670   6.085   1.205 -0.6027  0.3354  2.9517
 5733TIP3   OH244121   0.811   0.434   6.319 -0.0092 -0.2094  0.7625
 5733TIP3    H144122   0.832   0.447   6.412 -1.9570  2.3556  0.9362
 5733TIP3    H244123   0.824   0.520   6.279 -0.0391 -1.0607 -1.2020
 5734TIP3   OH244124   4.921   4.651   1.878  0.6332 -0.7384  0.0626
 5734TIP3    H144125   4.869   4.632   1.955 -0.3752 -4.3884 -1.3020
 5734TIP3    H244126   4.858   4.648   1.805  2.0338 -0.6313 -1.2040
 5735TIP3   OH244127   2.781   0.688   6.241 -0.1192  0.4090  0.2723
 5735TIP3    H144128   2.695   0.730   6.245  0.2330  1.3052 -1.0170
 5735TIP3    H244129   2.841   0.754   6.272  0.3451  0.5892 -0.9491
 5736TIP3   OH244130   0.516   0.400   6.891 -0.4778 -0.2015  0.5819
 5736TIP3    H144131   0.547   0.313   6.916 -1.3936 -0.6906  0.0629
 5736TIP3    H244132   0.553   0.414   6.804  0.4278  0.3283  1.0418
 5737TIP3   OH244133   3.884   6.132   1.235 -0.4711  0.5927 -0.4058
 5737TIP3    H144134   3.859   6.206   1.291 -0.2573  0.6919 -0.4389
 5737TIP3    H244135   3.836   6.147   1.153 -0.1829  0.8699 -0.5276
 5738TIP3   OH244136   3.425   8.308   0.776  0.5539 -0.9290  0.4113
 5738TIP3    H144137   3.392   8.219   0.793  0.6045 -0.7072  1.7561
 5738TIP3    H244138   3.432   8.348   0.862  0.3712  0.4576 -0.1869
 5739TIP3   OH244139   5.827   4.093   0.274 -0.1911  0.2255  0.0987
 5739TIP3    H144140   5.841   3.999   0.260  0.5832  0.6052 -1.9241
 5739TIP3    H244141   5.746   4.113   0.227 -0.7855  0.4529  1.1817
 5740TIP3   OH244142   0.080   2.452   1.635  0.5946  0.6776  0.4739
 5740TIP3    H144143   0.175   2.455   1.638  0.6146  2.8496 -0.3006
 5740TIP3    H244144   0.052   2.538   1.666 -1.1122  0.1194  0.5857
 5741TIP3   OH244145   5.251   3.544   1.040  0.1132 -0.2680  0.3498
 5741TIP3    H144146   5.272   3.627   0.998  3.2860 -1.5842 -0.9097
 5741TIP3    H244147   5.324   3.528   1.101 -1.1482 -1.4979  1.6332
 5742TIP3   OH244148   5.242   1.488   0.712 -0.1534 -1.0063 -0.0451
 5742TIP3    H144149   5.229   1.576   0.676  2.4796 -1.1232 -1.5736
 5742TIP3    H244150   5.203   1.492   0.800  0.6522  1.9827  0.3014
 5743TIP3   OH244151   3.651   4.208   5.546 -0.4344 -0.7656 -0.2329
 5743TIP3    H144152   3.662   4.139   5.613  0.2672 -0.0400  0.4168
 5743TIP3    H244153   3.740   4.232   5.522 -0.6816 -0.1327 -0.5156
 5744TIP3   OH244154   5.959   7.170   0.802  0.0340 -0.0780 -0.4924
 5744TIP3    H144155   5.893   7.127   0.749  0.1415 -2.3177  1.0569
 5744TIP3    H244156   5.923   7.256   0.821 -1.0178 -0.1029 -2.2141
 5745TIP3   OH244157   6.288   1.801   5.643 -0.4170 -0.4477 -0.4923
 5745TIP3    H144158   6.202   1.827   5.609 -0.1751  1.0374 -0.0060
 5745TIP3    H244159   6.300   1.712   5.609 -1.1363  0.1582 -2.5074
 5746TIP3   OH244160   4.491   4.355   6.328 -0.1029 -0.1362 -0.0590
 5746TIP3    H144161   4.470   4.321   6.415 -0.0801  0.7435  0.2939
 5746TIP3    H244162   4.422   4.418   6.309 -0.9130 -1.3364 -1.2924
 5747TIP3   OH244163   6.977   1.970   6.242  0.2139 -0.5041  0.4227
 5747TIP3    H144164   6.993   2.033   6.171 -0.7652  1.3415  1.7427
 5747TIP3    H244165   6.954   1.889   6.197  1.0226  0.2019 -1.3712
 5748TIP3   OH244166   7.992   3.809   5.330 -0.2768 -0.4106 -0.4030
 5748TIP3    H144167   8.084   3.791   5.312 -0.2995 -0.4628 -0.4651
 5748TIP3    H244168   7.965   3.868   5.261  0.1269  0.8511  0.4840
 5749TIP3   OH244169   4.451   4.269   6.598  0.2090  0.0594 -0.1749
 5749TIP3    H144170   4.405   4.330   6.655 -1.1818  1.1977 -2.3524
 5749TIP3    H244171   4.396   4.190   6.598  0.3282 -0.0227  0.2331
 5750TIP3   OH244172   1.366   5.995   5.720  0.0214  0.2793  0.2994
 5750TIP3    H144173   1.290   5.967   5.771 -0.0055  0.4602  0.3566
 5750TIP3    H244174   1.386   6.083   5.752  0.3370  0.1801  0.3810
 5751TIP3   OH244175   2.577   2.743   5.213 -0.4619 -0.5968  0.2597
 5751TIP3    H144176   2.652   2.692   5.184 -2.1678 -5.0956  2.7619
 5751TIP3    H244177   2.614   2.811   5.268  1.8674 -2.0684  0.6382
 5752TIP3   OH244178   6.938   2.823   1.787  0.3904  0.7748 -0.0010
 5752TIP3    H144179   6.943   2.916   1.807  1.9811  1.0558 -1.4718
 5752TIP3    H244180   7.010   2.784   1.837  0.6582  0.5720 -0.5394
 5753TIP3   OH244181   5.155   1.323   1.551  0.0219  0.1883 -0.1753
 5753TIP3    H144182   5.154   1.408   1.595  0.1970 -0.2141  0.6195
 5753TIP3    H244183   5.108   1.265   1.611 -0.3827 -0.2063 -0.8639
 5754TIP3   OH244184   6.139   3.963   6.374 -0.8566 -0.2008 -0.4036
 5754TIP3    H144185   6.196   3.893   6.344  0.8575  0.6497  0.6551
 5754TIP3    H244186   6.160   3.973   6.467 -2.5712  0.3474 -0.0298
 5755TIP3   OH244187   2.436   0.394   0.858 -0.1979  0.6869  0.4580
 5755TIP3    H144188   2.518   0.360   0.893  0.0888  2.4390  1.6448
 5755TIP3    H244189   2.377   0.396   0.933 -0.7347  1.1627  0.0300
 5756TIP3   OH244190   1.905   4.942   0.632  0.1298 -0.1825  0.5446
 5756TIP3    H144191   2.001   4.950   0.630  0.3464 -2.2700  0.4867
 5756TIP3    H244192   1.885   4.922   0.723 -0.0835 -1.1132  0.3090
 5757TIP3   OH244193   7.247   0.542   0.515  0.2049 -0.0671 -0.4570
 5757TIP3    H144194   7.217   0.482   0.584 -1.5250  0.6178 -0.5801
 5757TIP3    H244195   7.181   0.535   0.446 -1.2846  3.4503  0.3770
 5758TIP3   OH244196   1.959   6.147   5.945 -0.0433  0.4851 -0.2363
 5758TIP3    H144197   2.017   6.223   5.958  1.3903 -0.5969 -0.0289
 5758TIP3    H244198   1.892   6.157   6.013 -0.5044  2.0852 -0.8631
 5759TIP3   OH244199   7.718   8.048   6.889  0.3166 -0.1282 -0.1956
 5759TIP3    H144200   7.731   8.047   6.983  0.5801 -0.3328 -0.2299
 5759TIP3    H244201   7.732   8.139   6.863  1.7096 -0.3315 -0.2221
 5760TIP3   OH244202   8.341   2.074   0.948  0.4472  0.7400  0.5475
 5760TIP3    H144203   8.380   2.142   0.892  0.5995 -0.1600 -0.4749
 5760TIP3    H244204   8.252   2.064   0.915  0.8202 -0.4360 -0.1621
 5761TIP3   OH244205   0.938   0.594   0.878 -0.2542  0.3678  0.1780
 5761TIP3    H144206   0.904   0.683   0.876  3.3120  1.9300  1.6350
 5761TIP3    H244207   1.017   0.597   0.824 -1.0694 -2.5305 -1.4184
 5762TIP3   OH244208   7.363   4.861   0.800 -0.1653 -0.1596 -0.1086
 5762TIP3    H144209   7.381   4.943   0.754  0.1838  0.3097  0.8542
 5762TIP3    H244210   7.268   4.862   0.816  0.1054  0.9350  1.5389
 5763TIP3   OH244211   4.796   6.922   5.393 -0.2950 -0.9519  0.5073
 5763TIP3    H144212   4.851   6.861   5.443 -2.5276 -2.5700  1.1546
 5763TIP3    H244213   4.707   6.906   5.425 -1.0837  2.2748  0.2332
 5764TIP3   OH244214   7.483   5.118   0.960  0.7317 -0.6817 -0.9042
 5764TIP3    H144215   7.404   5.139   1.009  1.8836  0.1553  0.7034
 5764TIP3    H244216   7.459   5.131   0.868 -0.5951  1.0182 -0.3733
 5765TIP3   OH244217   3.455   6.943   6.770  0.1602 -0.4308 -0.1834
 5765TIP3    H144218   3.508   6.864   6.767 -0.6808 -1.0042 -0.4159
 5765TIP3    H244219   3.389   6.925   6.837  0.3335  0.3122  0.1917
 5766TIP3   OH244220   1.739   5.275   5.917 -0.0288  0.0955 -0.2537
 5766TIP3    H144221   1.683   5.248   5.845 -0.1149  1.3086 -0.6626
 5766TIP3    H244222   1.793   5.345   5.880  0.4474  0.2175  0.6536
 5767TIP3   OH244223   6.313   0.752   5.069 -0.3295 -0.4859 -0.5799
 5767TIP3    H144224   6.338   0.795   5.151 -1.0108 -1.0522 -0.0661
 5767TIP3    H244225   6.289   0.824   5.011 -0.6126 -0.1156 -0.0171
 5768TIP3   OH244226   6.873   4.806   0.638  0.0227  0.0032  0.1114
 5768TIP3    H144227   6.832   4.830   0.555  0.5806  1.5107  0.2439
 5768TIP3    H244228   6.836   4.720   0.659 -0.6359 -0.0985 -1.3505
 5769TIP3   OH244229   6.479   1.513   0.336  0.3628 -0.0401  0.0024
 5769TIP3    H144230   6.540   1.583   0.359 -0.9242  0.6677  1.4629
 5769TIP3    H244231   6.426   1.549   0.265  0.7744 -0.1800 -0.3841
 5770TIP3   OH244232   4.960   4.086   5.243 -0.3223 -0.0198  0.4889
 5770TIP3    H144233   4.997   4.040   5.167  0.3874 -2.1017  1.9893
 5770TIP3    H244234   4.866   4.089   5.225 -0.0655  0.4549 -0.9245
 5771TIP3   OH244235   0.924   2.525   1.230  0.0125  0.0755 -0.0368
 5771TIP3    H144236   0.960   2.457   1.174  0.3843  0.9078 -0.8452
 5771TIP3    H244237   0.883   2.587   1.169 -0.8410  0.2818  0.7157
 5772TIP3   OH244238   7.750   4.290   5.169  0.3670 -0.2800 -0.2610
 5772TIP3    H144239   7.749   4.329   5.082 -0.9879  1.3589  0.4399
 5772TIP3    H244240   7.674   4.327   5.214 -1.3464 -4.0632  0.3782
 5773TIP3   OH244241   0.694   2.337   6.415 -0.3057  0.0289 -0.1083
 5773TIP3    H144242   0.634   2.357   6.486 -0.7207  1.1875 -0.7640
 5773TIP3    H244243   0.639   2.332   6.337  0.2993  0.0272 -0.5466
 5774TIP3   OH244244   6.577   4.257   1.403  0.0116  0.6413  0.1131
 5774TIP3    H144245   6.513   4.235   1.471  1.4735  0.5791  1.5434
 5774TIP3    H244246   6.607   4.172   1.370  2.8738  0.3236  2.9627
 5775TIP3   OH244247   7.299   5.209   6.591  0.5905 -0.3304  0.3413
 5775TIP3    H144248   7.248   5.128   6.594 -0.8976  0.5722  1.1128
 5775TIP3    H244249   7.371   5.195   6.652 -0.2050 -0.7435  1.2175
 5776TIP3   OH244250   5.720   1.519   6.120 -0.4424 -0.2135  0.0204
 5776TIP3    H144251   5.692   1.579   6.051 -0.0678  1.6148  1.3494
 5776TIP3    H244252   5.648   1.521   6.184 -2.0437 -3.9818 -1.4038
 5777TIP3   OH244253   3.789   4.524   6.612  0.3759 -0.1443 -0.7705
 5777TIP3    H144254   3.803   4.597   6.552  1.2352  0.4771  0.1616
 5777TIP3    H244255   3.700   4.538   6.645  0.0665 -0.2358 -1.5303
 5778TIP3   OH244256   7.022   0.524   6.870 -0.0772 -0.5261 -0.2292
 5778TIP3    H144257   7.005   0.458   6.803  0.6482 -0.8803 -0.0752
 5778TIP3    H244258   6.997   0.481   6.952  1.3363 -0.9936 -0.0192
 5779TIP3   OH244259   5.306   4.646   6.727  0.2826  0.1304 -0.2197
 5779TIP3    H144260   5.288   4.586   6.800  0.1255 -0.5463 -0.7978
 5779TIP3    H244261   5.387   4.691   6.753 -0.1057  0.3514  0.6462
 5780TIP3   OH244262   6.417   3.134   2.019  0.5682  0.1857 -0.1051
 5780TIP3    H144263   6.342   3.091   1.979  0.4759 -0.2777  0.5469
 5780TIP3    H244264   6.493   3.087   1.987  0.5671  0.5034 -0.5783
 5781TIP3   OH244265   1.294   1.804   5.247 -0.6216 -0.0037 -0.0765
 5781TIP3    H144266   1.310   1.742   5.318 -1.9806  0.1147  0.3792
 5781TIP3    H244267   1.231   1.760   5.190 -1.1775  0.7269 -0.0452
 5782TIP3   OH244268   2.034   0.051   6.796  0.1069  0.0899 -0.5128
 5782TIP3    H144269   1.982   0.064   6.716  0.0695 -0.9497 -0.6730
 5782TIP3    H244270   2.024   8.493   6.816  0.9216  0.1329  0.1475
 5783TIP3   OH244271   8.289   5.473   5.275  0.1026 -0.2673  0.3825
 5783TIP3    H144272   8.350   5.409   5.238 -0.2312 -0.1557 -0.3724
 5783TIP3    H244273   8.286   5.544   5.210  0.2183  0.3720  1.0548
 5784TIP3   OH244274   5.114   0.907   1.086  0.3744  0.0950 -0.0379
 5784TIP3    H144275   5.102   0.942   1.175  0.7871  0.9263 -0.3023
 5784TIP3    H244276   5.107   0.812   1.097 -3.0905  0.2563  0.3529
 5785TIP3   OH244277   4.629   3.110   1.342 -0.2768 -0.2472  0.0237
 5785TIP3    H144278   4.655   3.175   1.408 -0.4477  0.1423 -0.2864
 5785TIP3    H244279   4.563   3.056   1.386 -0.9141  0.4588 -0.0485
 5786TIP3   OH244280   8.025   0.810   1.631 -0.7827  0.9157  0.1137
 5786TIP3    H144281   8.029   0.891   1.681  1.3622  0.7576  0.2914
 5786TIP3    H244282   8.106   0.810   1.579 -0.3772 -1.4041  0.6367
 5787TIP3   OH244283   3.950   5.873   1.193  0.9001  0.4793 -0.3336
 5787TIP3    H144284   3.941   5.968   1.184  1.1872  0.5951  0.5135
 5787TIP3    H244285   3.914   5.838   1.112 -1.2608  1.1939  0.2534
 5788TIP3   OH244286   0.258   2.391   6.579  0.1167 -0.2749 -0.3680
 5788TIP3    H144287   0.276   2.302   6.610  0.7733  0.9135  3.1467
 5788TIP3    H244288   0.337   2.417   6.533  1.9693  0.0007  2.7114
 5789TIP3   OH244289   7.233   0.880   1.340  0.4887  0.4407 -0.4331
 5789TIP3    H144290   7.192   0.951   1.291  0.9759 -0.5766 -2.3699
 5789TIP3    H244291   7.172   0.862   1.412  0.1261  2.4546 -0.1793
 5790TIP3   OH244292   5.700   3.312   1.207  0.1607  0.9145  0.3029
 5790TIP3    H144293   5.629   3.247   1.202  0.7023  0.3327  0.0378
 5790TIP3    H244294   5.679   3.375   1.138  0.3668  0.2558 -0.3876
 5791TIP3   OH244295   1.796   2.719   5.950 -0.0332  0.6045  0.1795
 5791TIP3    H144296   1.730   2.712   5.881 -1.2632  0.6859  1.3161
 5791TIP3    H244297   1.805   2.813   5.965 -0.9249  0.5462  1.1840
 5792TIP3   OH244298   7.696   6.060   0.293 -1.1380 -0.7085  0.2083
 5792TIP3    H144299   7.670   5.968   0.301 -1.0408 -0.6810  0.9263
 5792TIP3    H244300   7.673   6.084   0.203 -1.1247 -1.4435  0.0041
 5793TIP3   OH244301   4.718   5.754   6.632  0.1549 -0.0784 -0.4450
 5793TIP3    H144302   4.773   5.678   6.613  0.5834 -0.2892  1.4256
 5793TIP3    H244303   4.637   5.716   6.667 -1.2762  0.2308 -3.1437
 5794TIP3   OH244304   2.347   7.080   0.382 -0.9356  0.0134  0.1427
 5794TIP3    H144305   2.330   7.110   0.471 -0.4314  0.4710  0.0933
 5794TIP3    H244306   2.287   7.006   0.369 -0.8200 -0.2269  0.9513
 5795TIP3   OH244307   5.050   8.410   5.151  0.5120 -0.0119 -0.1135
 5795TIP3    H144308   4.964   8.368   5.153  0.6832 -0.3259  1.0082
 5795TIP3    H244309   5.033   8.499   5.120 -0.3180  0.1371  0.7319
 5796TIP3   OH244310   8.063   8.090   1.177  0.4277  0.6813  0.2503
 5796TIP3    H144311   8.032   8.067   1.089  0.0440  2.2207 -0.0374
 5796TIP3    H244312   8.069   8.185   1.176 -1.2999  0.8675  2.4730
 5797TIP3   OH244313   7.916   4.012   6.006  0.3969 -0.0972 -0.0527
 5797TIP3    H144314   7.937   3.921   5.984 -3.5270 -1.1182 -0.3011
 5797TIP3    H244315   7.960   4.064   5.938  2.1503 -1.7987 -0.3087
 5798TIP3   OH244316   4.586   5.482   1.263  0.6270 -0.9375 -0.3300
 5798TIP3    H144317   4.654   5.473   1.330  2.1191 -1.0516 -1.7996
 5798TIP3    H244318   4.605   5.566   1.221 -0.7205 -0.5381 -0.1686
 5799TIP3   OH244319   0.073   0.449   1.095  0.2596  0.6388  0.0037
 5799TIP3    H144320   0.054   0.531   1.050  1.3357  0.1169 -1.4853
 5799TIP3    H244321   0.151   0.466   1.146  3.1405 -0.4514 -3.6159
 5800TIP3   OH244322   0.382   8.405   5.517 -0.5864 -0.5148 -0.2823
 5800TIP3    H144323   0.409   8.347   5.445  0.2634  0.1827 -0.5431
 5800TIP3    H244324   0.288   8.391   5.525 -0.7265 -0.5084 -1.6467
 5801TIP3   OH244325   2.991   1.737   0.931  0.3341 -0.2140  0.6532
 5801TIP3    H144326   3.053   1.767   0.864 -0.0749 -0.1497  0.2999
 5801TIP3    H244327   3.041   1.739   1.013  0.3392  1.4167  0.6413
 5802TIP3   OH244328   6.530   7.722   6.494  0.2978 -0.0435  0.2430
 5802TIP3    H144329   6.500   7.670   6.419  1.0402 -0.6179  0.3323
 5802TIP3    H244330   6.460   7.787   6.507 -1.7391 -2.3196  1.4800
 5803TIP3   OH244331   0.567   6.028   7.061  0.3877 -0.6631 -0.0233
 5803TIP3    H144332   0.613   5.951   0.022  0.0796 -1.0392 -0.4761
 5803TIP3    H244333   0.476   6.000   7.053  0.4397 -0.5637 -1.1614
 5804TIP3   OH244334   3.851   8.027   6.646  1.3519  0.1722 -0.2778
 5804TIP3    H144335   3.850   8.008   6.740  0.0996  0.0244 -0.3080
 5804TIP3    H244336   3.901   7.954   6.608  0.1659 -0.8654  0.0702
 5805TIP3   OH244337   0.644   4.048   0.874 -0.2385  0.1095 -0.2504
 5805TIP3    H144338   0.566   4.076   0.826  0.6311  2.0476 -0.6349
 5805TIP3    H244339   0.660   4.117   0.937  0.4611 -0.8711  0.6884
 5806TIP3   OH244340   7.823   5.782   0.984 -0.3970  0.0381  0.4718
 5806TIP3    H144341   7.750   5.816   0.931 -1.3311 -2.5569 -0.0703
 5806TIP3    H244342   7.896   5.776   0.922 -0.6307 -0.2161  0.2140
 5807TIP3   OH244343   8.263   4.465   0.255  0.0700  0.0636  0.1593
 5807TIP3    H144344   8.296   4.436   0.170  1.7459 -0.2035  0.8606
 5807TIP3    H244345   8.291   4.397   0.317  2.5388  2.1333  1.5549
 5808TIP3   OH244346   2.322   7.229   5.806  0.2184 -0.4277  0.0478
 5808TIP3    H144347   2.257   7.263   5.745  0.0550  1.5471  1.2183
 5808TIP3    H244348   2.389   7.190   5.751 -0.2902  0.6014 -1.3567
 5809TIP3   OH244349   8.500   2.076   6.158  0.2735 -0.0385 -0.6877
 5809TIP3    H144350   0.014   2.115   6.231 -1.4225  0.5698  0.1647
 5809TIP3    H244351   8.524   2.129   6.082  2.0606 -0.6777 -0.6183
 5810TIP3   OH244352   0.079   0.624   5.632 -0.6928 -0.0737 -0.4930
 5810TIP3    H144353   0.127   0.629   5.715 -2.3002  1.5739  0.3949
 5810TIP3    H244354   0.079   0.530   5.611  2.1312 -0.2237 -0.1228
 5811TIP3   OH244355   5.990   2.105   6.874  0.2534 -0.0547 -0.1102
 5811TIP3    H144356   5.896   2.087   6.877  0.1453  0.1209 -1.8284
 5811TIP3    H244357   6.017   2.079   6.786  1.7262  0.3671  0.1896
 5812TIP3   OH244358   1.918   5.533   1.765 -0.0332 -0.4711  0.0636
 5812TIP3    H144359   1.835   5.580   1.770 -1.6363 -3.0043 -0.6550
 5812TIP3    H244360   1.936   5.506   1.855  0.1431  0.2631  0.2535
 5813TIP3   OH244361   6.500   0.955   6.509 -0.6219 -0.2822  0.5376
 5813TIP3    H144362   6.554   1.021   6.465  1.0692 -1.1732  1.1698
 5813TIP3    H244363   6.411   0.975   6.482 -0.0725  1.7004 -0.0029
 5814TIP3   OH244364   6.118   7.393   6.353  0.2773 -0.0602  0.2872
 5814TIP3    H144365   6.092   7.455   6.285 -0.9446 -0.3192  0.4911
 5814TIP3    H244366   6.036   7.368   6.396  0.8674 -0.9614  0.9441
 5815TIP3   OH244367   4.581   4.760   1.706 -0.3086 -0.7661 -0.3639
 5815TIP3    H144368   4.655   4.811   1.674  0.6033 -0.8321  1.5203
 5815TIP3    H244369   4.606   4.669   1.690  0.3641 -0.8213  0.9260
 5816TIP3   OH244370   1.919   5.535   6.278 -0.0754  0.2697 -0.7852
 5816TIP3    H144371   1.930   5.511   6.187 -0.1246 -0.4511 -0.6038
 5816TIP3    H244372   1.827   5.562   6.285 -0.4639 -1.0587 -0.6413
 5817TIP3   OH244373   6.560   4.833   0.686  0.1212  0.3122 -0.0070
 5817TIP3    H144374   6.600   4.847   0.772 -0.6357 -1.0069  0.5959
 5817TIP3    H244375   6.602   4.897   0.629  2.9142 -0.7793  0.6506
 5818TIP3   OH244376   8.396   7.838   1.436 -0.1696  0.0636  0.5157
 5818TIP3    H144377   8.393   7.934   1.445  1.4222  0.2687 -0.8570
 5818TIP3    H244378   8.377   7.806   1.525  0.7047  1.6715  1.3310
 5819TIP3   OH244379   3.387   2.097   6.369  0.0602 -0.4736 -0.2598
 5819TIP3    H144380   3.380   2.178   6.420  0.3721 -0.0349 -0.9019
 5819TIP3    H244381   3.306   2.049   6.390 -0.7534  0.5906 -0.8711
 5820TIP3   OH244382   4.360   2.114   0.376 -0.1832  0.5527 -0.2550
 5820TIP3    H144383   4.298   2.156   0.316  1.2261 -0.3533 -2.4895
 5820TIP3    H244384   4.393   2.185   0.430 -2.5488  1.1801  0.4818
 5821TIP3   OH244385   1.542   4.607   6.881 -0.6947 -0.2868 -0.1013
 5821TIP3    H144386   1.588   4.691   6.876  0.3246 -0.8632 -0.7175
 5821TIP3    H244387   1.592   4.549   6.824 -3.0702 -0.5323 -2.0973
 5822TIP3   OH244388   3.340   5.443   6.454 -0.2579 -0.5859 -0.3221
 5822TIP3    H144389   3.298   5.358   6.442 -0.1194 -0.6749 -0.1704
 5822TIP3    H244390   3.268   5.506   6.449 -0.3103 -0.6806 -0.8263
 5823TIP3   OH244391   3.716   3.287   0.525  0.1546  0.6277  0.7246
 5823TIP3    H144392   3.703   3.370   0.480  1.2484  0.4244  0.0042
 5823TIP3    H244393   3.801   3.297   0.569  0.5947 -0.3313  0.1122
 5824TIP3   OH244394   4.991   1.064   5.439 -0.4490 -0.3921  0.0067
 5824TIP3    H144395   4.929   0.992   5.452  1.3938 -2.0990 -0.2892
 5824TIP3    H244396   5.018   1.090   5.528  0.8482 -1.8863  0.0811
 5825TIP3   OH244397   5.267   5.652   6.575  0.1540 -0.0004  0.5547
 5825TIP3    H144398   5.332   5.663   6.506  0.6422 -1.3748  0.7746
 5825TIP3    H244399   5.224   5.569   6.555  0.6658 -0.6863  2.1770
 5826TIP3   OH244400   2.500   5.207   0.413  0.5409 -0.4695 -0.1060
 5826TIP3    H144401   2.415   5.164   0.419  0.0488  0.3044 -1.1955
 5826TIP3    H244402   2.518   5.236   0.503  0.6438 -2.4172  0.5431
 5827TIP3   OH244403   2.720   6.079   1.232  0.4032  0.1574  0.2536
 5827TIP3    H144404   2.710   6.147   1.299  1.2661  1.8594 -1.2772
 5827TIP3    H244405   2.808   6.044   1.246  0.0607 -0.5075  0.8629
 5828TIP3   OH244406   8.015   5.372   1.467  0.5876  0.1338 -0.3698
 5828TIP3    H144407   8.054   5.346   1.383  1.1681  0.4570 -0.2058
 5828TIP3    H244408   8.066   5.324   1.533 -0.5067 -0.8941 -0.2475
 5829TIP3   OH244409   2.866   3.433   0.913 -0.4905 -0.2983 -0.0287
 5829TIP3    H144410   2.838   3.429   1.004  1.4301 -0.5266  0.5866
 5829TIP3    H244411   2.867   3.341   0.885  0.5588 -0.3883  0.2677
 5830TIP3   OH244412   5.107   3.890   1.505  0.5730  0.1203 -0.3841
 5830TIP3    H144413   5.154   3.900   1.588  0.1652  0.0282 -0.1403
 5830TIP3    H244414   5.155   3.821   1.459 -1.5886 -2.8803  1.5398
 5831TIP3   OH244415   7.349   2.709   5.796 -0.5542 -0.1284  0.3571
 5831TIP3    H144416   7.297   2.756   5.861  0.1438  1.6730 -0.3139
 5831TIP3    H244417   7.327   2.751   5.713 -1.4568 -2.4006 -0.6397
 5832TIP3   OH244418   3.365   2.001   5.138 -0.0631 -0.0363  0.1184
 5832TIP3    H144419   3.346   2.095   5.138 -0.9759 -0.2033  0.7358
 5832TIP3    H244420   3.280   1.960   5.119 -0.3882 -0.8375  2.8336
 5833TIP3   OH244421   5.954   4.018   1.322  0.1376 -0.0828  0.0846
 5833TIP3    H144422   6.029   3.962   1.344  0.5876  0.4944  0.0704
 5833TIP3    H244423   5.970   4.044   1.231  0.4163  0.7869  0.3695
 5834TIP3   OH244424   4.484   3.224   1.840 -0.6777  0.2372  0.7110
 5834TIP3    H144425   4.570   3.261   1.821 -0.7774  0.0699 -0.1182
 5834TIP3    H244426   4.481   3.217   1.936  0.7345 -0.9446  0.7058
 5835TIP3   OH244427   8.024   6.558   5.968  0.1867 -0.2962 -0.6204
 5835TIP3    H144428   7.950   6.504   5.941 -1.3071  0.5199  1.5407
 5835TIP3    H244429   8.084   6.497   6.011 -0.5261 -0.5978 -0.0189
 5836TIP3   OH244430   8.529   3.048   0.690  0.2348 -0.3627 -0.2178
 5836TIP3    H144431   8.444   3.057   0.646  0.5448  1.2134 -0.5292
 5836TIP3    H244432   8.508   3.053   0.783 -0.1326 -1.2523 -0.2323
 5837TIP3   OH244433   6.596   2.599   6.596  0.2702  0.1362  0.1325
 5837TIP3    H144434   6.544   2.636   6.668 -0.1515 -0.0566 -0.0708
 5837TIP3    H244435   6.588   2.664   6.526 -0.9368 -0.5894 -0.4230
 5838TIP3   OH244436   0.173   5.275   0.011 -0.5131 -0.1931 -0.2372
 5838TIP3    H144437   0.162   5.181   0.001 -2.4830  0.0822 -0.9903
 5838TIP3    H244438   0.135   5.295   0.097  2.0924 -0.3488  1.0633
 5839TIP3   OH244439   4.587   6.236   1.169  0.3792  0.0397 -0.0627
 5839TIP3    H144440   4.564   6.319   1.212 -0.8625 -0.3743  0.1157
 5839TIP3    H244441   4.503   6.198   1.145  0.9915 -0.6188 -1.2132
 5840TIP3   OH244442   4.204   0.015   1.106  0.5169 -0.2215 -0.1948
 5840TIP3    H144443   4.239   8.474   1.060  1.9180  1.1020 -1.3643
 5840TIP3    H244444   4.175   0.075   1.037  1.1618  1.1092  0.6559
 5841TIP3   OH244445   5.687   7.688   0.054  0.1842 -0.3286  0.1087
 5841TIP3    H144446   5.715   7.707   7.035  1.5055 -1.2584  0.2941
 5841TIP3    H244447   5.599   7.652   0.044  0.3937 -0.6212 -0.8492
 5842TIP3   OH244448   7.551   2.561   0.752  0.8177 -1.1449 -0.0714
 5842TIP3    H144449   7.555   2.480   0.804  0.2565 -1.2409 -0.1759
 5842TIP3    H244450   7.637   2.566   0.709  1.8792 -0.2692  2.0224
 5843TIP3   OH244451   8.304   2.498   5.496  0.2691  0.2536 -0.2899
 5843TIP3    H144452   8.352   2.424   5.533 -0.3351 -0.6186 -1.2142
 5843TIP3    H244453   8.212   2.473   5.502  0.0949  0.6352 -1.2161
 5844TIP3   OH244454   8.281   7.819   6.731  0.1175  0.3836  0.4368
 5844TIP3    H144455   8.365   7.864   6.735  0.3230 -0.0735  2.5629
 5844TIP3    H244456   8.250   7.833   6.642  1.6387  2.0117  0.1163
 5845TIP3   OH244457   2.753   2.142   5.976  0.1688 -0.1417  0.1771
 5845TIP3    H144458   2.831   2.197   5.976 -0.0622  0.2133 -0.9375
 5845TIP3    H244459   2.773   2.072   5.914 -0.6714  0.3834 -0.7189
 5846TIP3   OH244460   1.920   5.886   1.317 -0.1712 -0.4693 -0.2063
 5846TIP3    H144461   1.919   5.920   1.227  1.6048  1.6193  0.4911
 5846TIP3    H244462   1.986   5.817   1.316  0.8379  0.4687 -0.2502
 5847TIP3   OH244463   2.986   5.155   6.558 -0.4129 -0.4355  0.3342
 5847TIP3    H144464   3.058   5.187   6.504 -0.9970 -0.5154 -0.5147
 5847TIP3    H244465   2.968   5.226   6.619  1.0831 -0.8310  1.2908
 5848TIP3   OH244466   7.254   2.884   2.098  0.1396 -0.5272 -0.1985
 5848TIP3    H144467   7.219   2.951   2.156  0.2755 -0.7573  0.1535
 5848TIP3    H244468   7.243   2.920   2.010 -1.3633 -0.7469 -0.1366
 5849TIP3   OH244469   3.123   0.854   0.785 -0.4885 -0.0744 -0.9302
 5849TIP3    H144470   3.032   0.867   0.757  0.0152  2.7541 -1.5391
 5849TIP3    H244471   3.136   0.918   0.856  0.1328 -2.7378  1.5549
 5850TIP3   OH244472   6.437   0.753   5.341 -0.3375  0.0514  0.5510
 5850TIP3    H144473   6.437   0.699   5.421 -0.6611  0.6988  0.9982
 5850TIP3    H244474   6.519   0.802   5.347 -0.5074  0.3263  0.6478
 5851TIP3   OH244475   7.109   6.127   6.815 -0.1698  0.3728 -0.0384
 5851TIP3    H144476   7.064   6.044   6.802  2.3538 -1.2930  1.1774
 5851TIP3    H244477   7.198   6.112   6.784  0.3626  2.6631  0.1557
 5852TIP3   OH244478   7.197   0.392   0.754  0.0662  0.3358 -0.3622
 5852TIP3    H144479   7.203   0.421   0.845 -1.6809  0.5085 -0.2615
 5852TIP3    H244480   7.282   0.353   0.735 -0.1747 -1.5741  1.9914
 5853TIP3   OH244481   0.298   1.248   5.364 -0.8562  0.0200  0.4285
 5853TIP3    H144482   0.232   1.304   5.324 -0.5997  0.0086 -0.0090
 5853TIP3    H244483   0.263   1.159   5.355 -0.4116 -0.0667 -0.5330
 5854TIP3   OH244484   0.723   3.442   1.055  0.3366  0.3042  0.4158
 5854TIP3    H144485   0.784   3.483   1.117 -1.2059  2.4983  0.6065
 5854TIP3    H244486   0.652   3.505   1.046  0.8327  0.5547 -4.2653
 5855TIP3   OH244487   6.283   1.235   6.101 -0.3254  0.0319 -0.3680
 5855TIP3    H144488   6.276   1.220   6.006  1.5017 -0.2353 -0.5133
 5855TIP3    H244489   6.201   1.201   6.137 -1.4543  0.9700 -1.9236
 5856TIP3   OH244490   0.560   7.707   1.051 -0.0488  0.0063 -0.2415
 5856TIP3    H144491   0.527   7.721   1.139 -0.7244  1.0987 -0.6423
 5856TIP3    H244492   0.481   7.696   0.997  0.2996  0.4909 -0.8728
 5857TIP3   OH244493   1.732   5.682   6.945 -0.1352 -0.2811 -0.3247
 5857TIP3    H144494   1.802   5.715   6.889  0.3786 -1.0190 -0.1390
 5857TIP3    H244495   1.737   5.733   7.025  0.3862 -0.5351 -0.1964
 5858TIP3   OH244496   2.516   1.886   5.801  0.1571 -0.0408 -0.1081
 5858TIP3    H144497   2.518   1.792   5.821 -0.3926 -0.5878 -2.3607
 5858TIP3    H244498   2.602   1.918   5.827  1.1333 -1.6208 -1.2480
 5859TIP3   OH244499   7.643   1.713   6.014  0.0224 -0.1742  0.2481
 5859TIP3    H144500   7.607   1.801   6.027  0.2847  0.3967 -2.3158
 5859TIP3    H244501   7.571   1.663   5.977  0.3950 -0.4902 -0.0565
 5860TIP3   OH244502   6.014   2.407   1.908 -0.7135  0.5872 -0.0861
 5860TIP3    H144503   6.078   2.478   1.904 -0.2026  0.2337  1.2337
 5860TIP3    H244504   5.937   2.446   1.951 -1.5902  1.1339 -2.0708
 5861TIP3   OH244505   4.910   5.478   1.025  0.1782 -0.4633 -0.1529
 5861TIP3    H144506   4.852   5.541   0.982 -0.4852 -0.6759  0.4087
 5861TIP3    H244507   4.885   5.394   0.988  0.6157 -0.4780 -0.4223
 5862TIP3   OH244508   5.086   2.832   0.517 -0.2195  0.0313 -0.0804
 5862TIP3    H144509   5.018   2.894   0.492 -1.4138 -1.3507 -0.3468
 5862TIP3    H244510   5.075   2.758   0.457  1.5261 -0.2454 -0.1379
 5863TIP3   OH244511   5.058   7.665   0.529 -0.0575  1.0560  0.0049
 5863TIP3    H144512   5.102   7.728   0.586  1.4286  2.7738 -2.8289
 5863TIP3    H244513   5.089   7.580   0.559  0.2342  1.8046  2.0308
 5864TIP3   OH244514   6.087   7.949   6.636 -0.4219 -0.0164 -0.0551
 5864TIP3    H144515   6.021   8.002   6.592 -0.5732 -0.5613 -0.4991
 5864TIP3    H244516   6.133   8.010   6.693  1.2832  1.2915 -2.5917
 5865TIP3   OH244517   6.945   2.685   6.559 -0.0017 -0.6711 -0.1715
 5865TIP3    H144518   6.932   2.599   6.599 -1.0627 -0.1539  0.6527
 5865TIP3    H244519   6.908   2.676   6.471  1.1653 -1.4386 -0.6081
 5866TIP3   OH244520   0.991   3.093   0.944  0.3402 -0.1762 -0.1559
 5866TIP3    H144521   0.922   3.140   0.896 -0.6049 -1.9343 -0.6326
 5866TIP3    H244522   0.956   3.085   1.033  0.1398 -0.6044 -0.2669
 5867TIP3   OH244523   0.237   3.281   6.193  0.0659 -0.1027  0.8257
 5867TIP3    H144524   0.226   3.369   6.230 -0.5519 -1.1857  3.4252
 5867TIP3    H244525   0.240   3.223   6.269  0.6008 -2.3474 -0.8045
 5868TIP3   OH244526   7.869   5.872   0.034 -0.6475 -0.3722  0.3581
 5868TIP3    H144527   7.947   5.862   0.088 -1.0591 -1.7076  0.7431
 5868TIP3    H244528   7.835   5.959   0.056  0.3096 -0.0824  0.7310
 5869TIP3   OH244529   1.749   4.705   5.834  1.0090  0.4926  0.3961
 5869TIP3    H144530   1.655   4.708   5.854  0.7186  0.1493 -0.8455
 5869TIP3    H244531   1.790   4.753   5.906 -0.0163 -0.2625  1.5301
 5870TIP3   OH244532   1.930   1.191   5.648 -0.2891  0.2319  0.6652
 5870TIP3    H144533   1.860   1.179   5.584 -0.9716 -0.0320  1.4463
 5870TIP3    H244534   1.893   1.160   5.730  0.7676  0.0384  1.0846
 5871TIP3   OH244535   6.685   7.731   0.945 -0.6973  0.4746 -0.2578
 5871TIP3    H144536   6.642   7.736   0.859 -0.5740  3.5950 -0.2658
 5871TIP3    H244537   6.642   7.800   0.996  2.3201  1.8770  0.6343
 5872TIP3   OH244538   6.845   1.543   2.128  0.1101 -0.3071  0.7350
 5872TIP3    H144539   6.884   1.493   2.199 -1.0728 -0.8456  1.0194
 5872TIP3    H244540   6.882   1.505   2.048 -0.6620 -1.5723  0.9506
 5873TIP3   OH244541   6.249   3.098   0.445 -0.3467  0.1936 -0.0097
 5873TIP3    H144542   6.179   3.163   0.456 -1.6900 -1.5030  2.6343
 5873TIP3    H244543   6.213   3.018   0.484  2.7993 -0.9766  0.7482
 5874TIP3   OH244544   5.960   8.345   0.566  0.4649 -0.8114 -0.1919
 5874TIP3    H144545   5.951   8.440   0.557  0.9003 -0.4095  2.7675
 5874TIP3    H244546   6.046   8.326   0.527  0.4817  0.0401 -0.5983
 5875TIP3   OH244547   6.972   0.347   0.961 -0.1653  0.4266 -0.3841
 5875TIP3    H144548   6.988   0.426   1.014  1.0165 -0.9397  1.4095
 5875TIP3    H244549   7.008   0.369   0.875  0.5264  1.6874  0.1944
 5876TIP3   OH244550   1.513   6.543   1.010  0.3507 -0.0665  0.7695
 5876TIP3    H144551   1.471   6.467   1.051 -2.2542  1.6696  1.5800
 5876TIP3    H244552   1.473   6.549   0.923  2.5069 -1.0686 -0.3720
 5877TIP3   OH244553   8.063   0.103   0.862 -0.3644 -0.0598 -0.4593
 5877TIP3    H144554   8.135   0.041   0.872 -1.0164 -0.6645  0.7125
 5877TIP3    H244555   8.002   0.079   0.932 -0.8221  1.6450 -0.2434
 5878TIP3   OH244556   1.035   7.092   6.413 -0.4184 -0.2635  0.0477
 5878TIP3    H144557   1.012   7.044   6.493  2.1332 -0.9354  0.4517
 5878TIP3    H244558   1.097   7.036   6.368 -0.3029  0.9909 -1.4498
 5879TIP3   OH244559   2.779   4.105   6.193  0.7099  0.4301  0.0055
 5879TIP3    H144560   2.867   4.073   6.175  1.0387  0.9403  0.6671
 5879TIP3    H244561   2.789   4.200   6.201 -0.2414  0.7479 -1.8735
 5880TIP3   OH244562   7.264   5.349   2.178 -0.6072  0.0221 -0.2965
 5880TIP3    H144563   7.195   5.329   2.241 -0.8541  3.1785  0.5803
 5880TIP3    H244564   7.219   5.355   2.094 -0.8130 -1.0313 -0.2815
 5881TIP3   OH244565   1.926   3.081   0.710 -1.2323  0.4691 -0.1384
 5881TIP3    H144566   1.884   3.102   0.793 -0.1597  0.3857  0.4348
 5881TIP3    H244567   1.947   2.987   0.716 -0.5098  0.6213 -0.2033
 5882TIP3   OH244568   4.617   7.311   5.053  0.1647 -0.0307 -0.2323
 5882TIP3    H144569   4.629   7.217   5.066 -1.4032 -0.4874 -1.7444
 5882TIP3    H244570   4.703   7.342   5.025  0.1708 -1.4752 -1.9529
 5883TIP3   OH244571   4.248   1.794   0.964  0.4387 -0.7359 -0.4981
 5883TIP3    H144572   4.209   1.872   1.002  1.1156 -0.3732 -0.5398
 5883TIP3    H244573   4.219   1.794   0.873 -0.6159 -1.2368 -0.1842
 5884TIP3   OH244574   1.171   4.058   5.856  0.2259  0.4279 -0.2496
 5884TIP3    H144575   1.217   4.072   5.774  0.7427 -1.0668 -0.2534
 5884TIP3    H244576   1.171   3.963   5.868  0.0927  0.5953  1.4355
 5885TIP3   OH244577   1.700   5.401   5.495 -0.0884  0.0419  0.2589
 5885TIP3    H144578   1.689   5.423   5.587 -0.3378 -1.9053  0.7276
 5885TIP3    H244579   1.795   5.388   5.485 -0.1607 -0.6415  0.4585
 5886TIP3   OH244580   6.593   8.446   6.036  0.9515 -0.1205  0.4093
 5886TIP3    H144581   6.540   8.490   5.969  2.3356  1.6826  0.4328
 5886TIP3    H244582   6.537   8.442   6.113  0.0728 -0.3118 -0.2305
 5887TIP3   OH244583   8.309   5.468   0.904  0.5174 -0.4571  0.8885
 5887TIP3    H144584   8.350   5.459   0.818  0.1885  0.5551  0.6069
 5887TIP3    H244585   8.275   5.381   0.923 -0.7650 -0.3690 -0.7351
 5888TIP3   OH244586   1.946   0.841   6.187  0.4986 -0.1944  0.5476
 5888TIP3    H144587   1.859   0.872   6.210 -0.5683 -1.0985 -1.9172
 5888TIP3    H244588   2.005   0.886   6.247 -1.6574  0.3205  2.3990
 5889TIP3   OH244589   7.800   8.048   0.065 -0.1078  0.2841 -0.6074
 5889TIP3    H144590   7.744   8.019   0.136 -2.6629 -1.8835 -3.2514
 5889TIP3    H244591   7.886   8.011   0.086 -0.8318 -0.4444  1.2540
 5890TIP3   OH244592   1.305   5.995   5.030  0.0142 -0.3506 -0.1407
 5890TIP3    H144593   1.234   6.057   5.014  0.0442 -0.6572 -1.5469
 5890TIP3    H244594   1.261   5.912   5.046  0.0426 -0.5316 -0.9700
 5891TIP3   OH244595   3.544   1.171   0.090  0.0692 -0.3561  0.0811
 5891TIP3    H144596   3.553   1.260   0.056  0.9306 -0.4245  0.0985
 5891TIP3    H244597   3.470   1.176   0.151 -1.1948 -0.1266 -1.4091
 5892TIP3   OH244598   0.084   4.552   6.601  0.5464  0.6403 -0.2674
 5892TIP3    H144599   0.176   4.570   6.620  0.4597  1.6918 -0.7429
 5892TIP3    H244600   0.080   4.542   6.506  0.0397  1.5354 -0.3548
 5893TIP3   OH244601   4.160   6.252   1.123 -0.1404 -0.3137 -0.1337
 5893TIP3    H144602   4.107   6.329   1.104  1.3438  0.9039  0.4140
 5893TIP3    H244603   4.105   6.198   1.181 -1.5142 -0.0979 -1.1991
 5894TIP3   OH244604   0.074   6.894   1.340 -0.4824  0.2612  0.0056
 5894TIP3    H144605   0.072   6.874   1.433 -0.0225 -0.5927 -0.1562
 5894TIP3    H244606   8.530   6.851   1.305 -1.8374  2.3587  0.3093
 5895TIP3   OH244607   0.294   0.246   0.789 -0.2933  0.0369 -0.2340
 5895TIP3    H144608   0.324   0.332   0.760 -3.2698  1.5340  0.6630
 5895TIP3    H244609   0.331   0.236   0.876  0.3042  0.2630 -0.4549
 5896TIP3   OH244610   3.514   2.436   1.420 -1.0716 -0.2651 -0.4103
 5896TIP3    H144611   3.529   2.409   1.511 -1.6876  0.2186 -0.1534
 5896TIP3    H244612   3.430   2.481   1.423 -0.6099  0.6569 -1.0392
 5897TIP3   OH244613   1.372   5.837   0.809 -0.2034 -0.0560  0.3079
 5897TIP3    H144614   1.406   5.875   0.890  0.3071 -0.5539  0.3320
 5897TIP3    H244615   1.311   5.770   0.838 -0.5139  0.2066  0.2702
 5898TIP3   OH244616   4.263   0.812   6.449 -0.0366  0.3349  0.0442
 5898TIP3    H144617   4.257   0.793   6.355 -1.3173 -0.9590  0.3416
 5898TIP3    H244618   4.261   0.725   6.490  0.3777  0.8934  1.2735
 5899TIP3   OH244619   1.711   0.033   0.949  0.3495  0.3967 -0.2470
 5899TIP3    H144620   1.669   8.532   0.872 -1.1982 -0.3032  0.8853
 5899TIP3    H244621   1.801   8.534   0.945 -0.8128 -3.1252  0.3953
 5900TIP3   OH244622   7.686   2.090   1.471 -0.2768  1.0493  0.3375
 5900TIP3    H144623   7.650   2.178   1.482 -1.0483  0.7726  0.1374
 5900TIP3    H244624   7.728   2.071   1.554 -1.3533  1.0603  0.8987
 5901TIP3   OH244625   1.613   2.882   6.986 -0.5677 -0.2499  0.1393
 5901TIP3    H144626   1.602   2.841   6.900  0.9178  1.1686 -0.7835
 5901TIP3    H244627   1.707   2.877   7.003 -0.5153  1.5910  0.5531
 5902TIP3   OH244628   4.620   0.486   6.294  0.1756  0.4873  0.0797
 5902TIP3    H144629   4.692   0.527   6.247 -0.9212  2.2664 -0.1381
 5902TIP3    H244630   4.545   0.494   6.235 -0.3864 -0.6454  0.6090
 5903TIP3   OH244631   6.565   5.377   1.547  0.5721  0.3540  0.2692
 5903TIP3    H144632   6.536   5.469   1.550  0.8754  0.4427  0.7248
 5903TIP3    H244633   6.508   5.332   1.610 -1.2595 -0.2929 -1.7397
 5904TIP3   OH244634   3.683   3.121   6.035 -0.4074 -0.1297  0.1363
 5904TIP3    H144635   3.646   3.074   6.110 -1.1979 -1.2081 -0.8940
 5904TIP3    H244636   3.648   3.075   5.959  3.7627 -1.9213 -0.9804
 5905TIP3   OH244637   5.477   7.801   1.741  1.1609  0.3928  0.4424
 5905TIP3    H144638   5.516   7.745   1.675  0.7782  0.8040 -0.1402
 5905TIP3    H244639   5.522   7.778   1.822  0.3113 -1.4847  0.4241
 5906TIP3   OH244640   2.160   2.981   5.902 -0.2324  0.0868  0.0922
 5906TIP3    H144641   2.253   2.977   5.876 -0.0495  2.5376  0.1095
 5906TIP3    H244642   2.126   2.894   5.883  1.3617 -0.0403 -2.7822
 5907TIP3   OH244643   5.008   5.246   5.748 -0.3781 -0.3549 -0.4081
 5907TIP3    H144644   4.938   5.287   5.697 -0.0893  1.8866  0.8724
 5907TIP3    H244645   5.089   5.280   5.708 -0.0951 -0.5824 -0.0338
 5908TIP3   OH244646   2.530   5.609   1.091 -0.6977 -0.2095 -0.8416
 5908TIP3    H144647   2.576   5.693   1.095 -2.1670  0.6172  2.2085
 5908TIP3    H244648   2.456   5.625   1.032 -0.0566  0.1248 -1.5618
 5909TIP3   OH244649   7.974   6.529   6.681 -0.1152  0.0339  0.1497
 5909TIP3    H144650   7.917   6.459   6.712  0.1066  0.2910  1.1924
 5909TIP3    H244651   8.063   6.496   6.695 -0.0115  0.1054 -0.3367
 5910TIP3   OH244652   7.660   5.896   6.861 -0.5972 -0.3070  0.5982
 5910TIP3    H144653   7.591   5.949   6.902  0.1772  1.9338 -0.8513
 5910TIP3    H244654   7.630   5.884   6.771  0.2214 -0.5931  0.3605
 5911TIP3   OH244655   6.746   2.596   5.092 -0.2828  0.1951 -0.3526
 5911TIP3    H144656   6.754   2.524   5.029 -0.9358  0.7636 -1.1041
 5911TIP3    H244657   6.826   2.647   5.079 -0.6428  0.5915 -1.1033
 5912TIP3   OH244658   0.614   8.099   6.229 -0.4514  0.1509  0.2274
 5912TIP3    H144659   0.645   8.163   6.165 -1.1941  1.6222  1.2969
 5912TIP3    H244660   0.656   8.017   6.202  1.9923  1.4181 -0.1494
 5913TIP3   OH244661   6.595   6.408   0.674 -0.9934 -0.3908 -0.2845
 5913TIP3    H144662   6.520   6.447   0.629 -0.1331  0.1581 -1.2778
 5913TIP3    H244663   6.580   6.313   0.668 -0.9706 -0.3305 -1.6351
 5914TIP3   OH244664   4.642   0.197   1.405 -0.0433 -0.2411  0.4181
 5914TIP3    H144665   4.726   0.157   1.431  0.0760 -0.8039 -0.7519
 5914TIP3    H244666   4.661   0.290   1.399  0.3153 -0.2821  0.8611
 5915TIP3   OH244667   8.075   2.428   5.925  0.0681 -0.2665  0.0292
 5915TIP3    H144668   8.065   2.513   5.883 -0.0028 -0.4799 -0.3922
 5915TIP3    H244669   7.997   2.379   5.900  0.4233 -0.6835 -0.2774
 5916TIP3   OH244670   5.305   2.341   6.694 -0.1365 -0.2886 -0.3807
 5916TIP3    H144671   5.348   2.390   6.764 -0.2229  1.1034 -1.2621
 5916TIP3    H244672   5.226   2.392   6.674  0.1069 -0.4233 -1.7664
 5917TIP3   OH244673   0.576   1.637   1.108  0.8811 -0.3801  0.6511
 5917TIP3    H144674   0.637   1.711   1.111  0.1987  0.2176  0.1218
 5917TIP3    H244675   0.562   1.614   1.200  0.6746  0.5053  0.8497
 5918TIP3   OH244676   4.949   2.569   5.669  0.2509 -0.4913 -0.5433
 5918TIP3    H144677   5.024   2.628   5.658  0.8015 -0.9176  0.7389
 5918TIP3    H244678   4.880   2.625   5.705 -0.1843 -0.0259 -2.0298
 5919TIP3   OH244679   7.661   2.347   0.926 -0.2081 -0.1578  0.1435
 5919TIP3    H144680   7.746   2.338   0.884 -0.2308 -3.2782  0.4904
 5919TIP3    H244681   7.681   2.356   1.019 -0.2572  2.3080 -0.0317
 5920TIP3   OH244682   1.846   0.739   0.612  0.6473  0.3113 -0.1197
 5920TIP3    H144683   1.903   0.677   0.566  1.9541  1.5898 -0.2909
 5920TIP3    H244684   1.808   0.688   0.684  1.2059 -0.8377 -0.6142
 5921TIP3   OH244685   0.037   3.122   5.719 -0.1129  0.5459  0.1262
 5921TIP3    H144686   8.530   3.037   5.704  0.3333  0.3129  0.1914
 5921TIP3    H244687   0.061   3.121   5.812 -1.0136  1.1541  0.3796
 5922TIP3   OH244688   4.708   6.163   0.400  0.0528  0.3520  0.4711
 5922TIP3    H144689   4.741   6.221   0.469  0.9694 -1.0357  1.2495
 5922TIP3    H244690   4.636   6.116   0.441 -0.7006  0.9312 -0.1636
 5923TIP3   OH244691   1.375   6.961   0.461  0.2197  0.5511 -0.3138
 5923TIP3    H144692   1.413   6.913   0.387 -1.3292 -0.6079 -0.4047
 5923TIP3    H244693   1.433   6.940   0.535  1.4010  1.1864 -1.0175
 5924TIP3   OH244694   7.022   2.205   0.221 -0.5684 -0.7601 -0.7391
 5924TIP3    H144695   7.092   2.142   0.201 -0.0313 -0.2745 -0.4270
 5924TIP3    H244696   6.957   2.192   0.152  0.1537 -0.7356 -1.4358
 5925TIP3   OH244697   5.286   6.475   5.310  0.3774 -0.1767 -0.4093
 5925TIP3    H144698   5.328   6.390   5.316 -0.3693 -0.5371 -0.1357
 5925TIP3    H244699   5.193   6.455   5.299 -0.1092  0.5633  1.7590
 5926TIP3   OH244700   1.663   5.068   0.559 -0.4153  0.5947 -0.5255
 5926TIP3    H144701   1.741   5.038   0.513 -0.5681 -1.7159  0.5857
 5926TIP3    H244702   1.694   5.131   0.622  0.2734  1.1191 -1.3684
 5927TIP3   OH244703   3.752   4.565   1.356  0.1081  0.0312  0.2584
 5927TIP3    H144704   3.777   4.478   1.324 -1.3460 -0.1359 -0.4765
 5927TIP3    H244705   3.770   4.561   1.450  0.9709 -0.7265  0.0822
 5928TIP3   OH244706   4.652   8.152   1.863 -0.3792  0.0214 -0.1653
 5928TIP3    H144707   4.591   8.117   1.798 -0.2202 -0.6738  0.0557
 5928TIP3    H244708   4.701   8.219   1.816  1.0439 -1.7590 -1.3280
 5929TIP3   OH244709   6.263   7.551   5.838 -0.4754  0.3404 -0.4574
 5929TIP3    H144710   6.199   7.503   5.785  1.7636 -1.5102 -1.6476
 5929TIP3    H244711   6.335   7.490   5.850  0.0384  1.4398  3.0600
 5930TIP3   OH244712   3.183   7.125   1.345 -0.2854 -0.3479  0.1411
 5930TIP3    H144713   3.169   7.080   1.262  2.0440  1.0038 -1.0873
 5930TIP3    H244714   3.129   7.203   1.339 -0.4935 -0.4970  0.0895
 5931TIP3   OH244715   3.064   2.413   6.212 -0.0763  0.0693 -0.3968
 5931TIP3    H144716   3.139   2.460   6.249  0.4194  0.8665 -2.2992
 5931TIP3    H244717   3.100   2.328   6.187 -0.3570 -0.3811  0.6695
 5932TIP3   OH244718   7.924   1.375   6.136 -0.1928  0.0345 -0.3210
 5932TIP3    H144719   7.998   1.436   6.131 -0.7499  0.6571 -1.1851
 5932TIP3    H244720   7.960   1.297   6.180  0.7385  0.6644  0.0613
 5933TIP3   OH244721   7.351   5.700   6.508  0.4464  0.2163 -0.4264
 5933TIP3    H144722   7.391   5.714   6.594  1.4638 -0.2423 -0.8078
 5933TIP3    H244723   7.392   5.620   6.475 -0.9158 -0.3662 -0.7757
 5934TIP3   OH244724   0.923   6.044   0.125 -0.0209 -0.2930  0.0962
 5934TIP3    H144725   0.874   5.966   0.099 -0.9221  0.6775 -1.2733
 5934TIP3    H244726   0.860   6.096   0.175  0.2672  0.0233  0.1321
 5935TIP3   OH244727   2.279   3.541   0.310 -0.5668 -0.3159  0.5817
 5935TIP3    H144728   2.293   3.634   0.327  2.3155 -0.2962 -1.1717
 5935TIP3    H244729   2.290   3.532   0.215 -0.7374 -2.4619  0.7179
 5936TIP3   OH244730   3.990   7.674   0.691  0.3888  0.0817  0.3690
 5936TIP3    H144731   3.931   7.737   0.733  0.3905  1.0925 -1.0977
 5936TIP3    H244732   4.076   7.716   0.694  0.6322 -0.4186  0.5133
 5937TIP3   OH244733   4.248   5.060   1.182  0.2218  0.2747 -0.0023
 5937TIP3    H144734   4.269   5.153   1.187  3.0135 -0.1145 -1.9777
 5937TIP3    H244735   4.298   5.020   1.253  1.0771  0.0734 -0.6873
 5938TIP3   OH244736   1.209   0.551   6.318  0.7009 -0.1138 -0.3356
 5938TIP3    H144737   1.194   0.526   6.410  1.6627 -0.8397 -0.3628
 5938TIP3    H244738   1.196   0.646   6.317  1.5187  0.0303  0.7342
 5939TIP3   OH244739   3.708   7.662   1.149 -0.8127  0.2707  0.1286
 5939TIP3    H144740   3.664   7.610   1.217  0.3779 -1.1433 -0.1531
 5939TIP3    H244741   3.800   7.636   1.154 -0.2472  2.0026 -0.3727
 5940TIP3   OH244742   2.093   7.249   6.902  0.0888 -0.1925  0.0859
 5940TIP3    H144743   2.094   7.285   6.813 -0.1027 -0.9449 -0.2226
 5940TIP3    H244744   2.102   7.155   6.890  0.4056 -0.2684  0.8872
 5941TIP3   OH244745   0.771   7.501   0.399  0.5581  0.1965  0.4391
 5941TIP3    H144746   0.810   7.417   0.376 -3.4519 -1.3352 -1.7155
 5941TIP3    H244747   0.715   7.481   0.474 -1.1256  0.6689 -0.6512
 5942TIP3   OH244748   1.191   2.841   0.669 -0.2487 -0.0134 -0.2234
 5942TIP3    H144749   1.256   2.810   0.732  0.1184  0.3255 -0.4295
 5942TIP3    H244750   1.236   2.912   0.622  0.2106 -1.5792 -2.2677
 5943TIP3   OH244751   6.369   6.643   0.938 -0.2131 -0.0099  0.0814
 5943TIP3    H144752   6.424   6.721   0.931  1.0142 -0.9045 -0.6469
 5943TIP3    H244753   6.417   6.585   0.998 -0.6199 -0.5985 -0.1537
 5944TIP3   OH244754   1.609   1.876   7.008 -0.0232 -1.0807  0.1636
 5944TIP3    H144755   1.694   1.832   7.000 -1.2855 -4.0163  1.4832
 5944TIP3    H244756   1.557   1.842   6.936 -0.4976 -0.3403  0.1455
 5945TIP3   OH244757   3.394   4.296   0.292  0.2294 -0.2929  0.3406
 5945TIP3    H144758   3.346   4.365   0.247  0.0522 -0.2835  0.5410
 5945TIP3    H244759   3.455   4.342   0.350  0.8221 -0.3025 -0.2638
 5946TIP3   OH244760   5.984   5.984   6.255 -0.4178  0.3626  0.0232
 5946TIP3    H144761   5.964   5.901   6.212  0.9780 -1.4291  2.5246
 5946TIP3    H244762   6.064   6.015   6.213 -1.4829  1.0474 -1.6009
 5947TIP3   OH244763   7.046   1.911   0.270  0.1342  0.0268 -0.4570
 5947TIP3    H144764   7.019   1.829   0.312 -2.5564  0.6168 -0.8465
 5947TIP3    H244765   7.028   1.978   0.335 -1.9709  0.7089 -1.6333
 5948TIP3   OH244766   1.510   8.142   5.727 -0.3961 -0.1893  0.3248
 5948TIP3    H144767   1.577   8.154   5.660 -0.4482 -1.0232  0.1062
 5948TIP3    H244768   1.523   8.214   5.788 -1.0858  1.2808 -1.2002
 5949TIP3   OH244769   3.890   7.297   2.250 -0.7818  0.5701 -0.3351
 5949TIP3    H144770   3.851   7.371   2.203  1.1564  0.9388 -1.4681
 5949TIP3    H244771   3.935   7.246   2.182  0.6310  0.1394  0.8711
 5950TIP3   OH244772   7.467   1.394   5.675 -0.3186 -0.1364  0.2295
 5950TIP3    H144773   7.526   1.418   5.603  0.1538  2.4387  1.3589
 5950TIP3    H244774   7.399   1.340   5.633  0.8966 -0.2107 -1.7795
 5951TIP3   OH244775   3.217   6.371   0.020 -0.2253 -0.2928 -0.6860
 5951TIP3    H144776   3.288   6.307   0.014  0.9578  0.9785 -0.6936
 5951TIP3    H244777   3.260   6.456   0.013 -1.7216  0.5318 -0.3942
 5952TIP3   OH244778   7.034   2.308   6.884  0.4924 -0.2645  0.0064
 5952TIP3    H144779   7.129   2.320   6.880  0.9457 -3.0562  0.1812
 5952TIP3    H244780   7.020   2.218   6.852 -2.2624  0.6156 -1.6129
 5953TIP3   OH244781   2.057   5.782   0.051  0.0405 -0.0299 -0.2686
 5953TIP3    H144782   2.039   5.694   0.084 -0.3017 -0.0975 -0.6374
 5953TIP3    H244783   1.971   5.819   0.030  0.2676 -0.1120 -1.3981
 5954TIP3   OH244784   6.603   4.780   0.095  0.0083 -0.0130  0.4176
 5954TIP3    H144785   6.553   4.857   0.124  0.5311  0.7953 -0.7578
 5954TIP3    H244786   6.536   4.719   0.063 -0.3870  0.0764  1.0524
 5955TIP3   OH244787   6.175   0.793   5.450 -0.0586 -0.0545  0.0976
 5955TIP3    H144788   6.267   0.817   5.437 -0.1806 -0.3005 -1.4679
 5955TIP3    H244789   6.126   0.868   5.416 -0.4400 -0.0815  0.5822
 5956TIP3   OH244790   5.091   2.558   1.729 -0.3738  0.1000 -0.1659
 5956TIP3    H144791   5.141   2.476   1.720  1.1384  0.8133  1.1610
 5956TIP3    H244792   5.158   2.626   1.738 -1.5700  1.7013 -2.4444
 5957TIP3   OH244793   5.317   2.657   6.528  0.0265 -0.3094  0.3545
 5957TIP3    H144794   5.312   2.669   6.433 -2.2870 -0.1071  0.4462
 5957TIP3    H244795   5.371   2.730   6.559  0.0825  0.1169 -0.7160
 5958TIP3   OH244796   4.992   8.047   5.277 -0.6161 -0.2618  0.0091
 5958TIP3    H144797   4.903   8.012   5.283 -0.2185 -1.0923  1.5682
 5958TIP3    H244798   5.020   8.026   5.188 -1.6252 -0.8323 -0.1940
 5959TIP3   OH244799   5.087   5.793   6.708  0.2059 -0.1700  0.2153
 5959TIP3    H144800   5.143   5.844   6.767  0.1170 -1.2503  1.2714
 5959TIP3    H244801   5.148   5.736   6.661  0.5856  2.2880 -2.5699
 5960TIP3   OH244802   4.061   0.214   0.961  0.5619 -0.0386  0.3691
 5960TIP3    H144803   4.051   0.283   0.895  1.8792 -0.1235  0.0652
 5960TIP3    H244804   4.052   0.260   1.045 -0.9216  0.1021  0.1685
 5961TIP3   OH244805   2.483   1.549   0.763  0.3944  0.6576  0.0995
 5961TIP3    H144806   2.516   1.622   0.815  0.6377  1.3804 -1.0177
 5961TIP3    H244807   2.410   1.586   0.713 -3.0419 -1.1754  3.3298
 5962TIP3   OH244808   3.745   4.712   4.950  0.1485 -0.0556 -0.6774
 5962TIP3    H144809   3.813   4.690   5.014 -0.8900 -0.4167  0.3347
 5962TIP3    H244810   3.712   4.627   4.919  0.2495  0.1167 -1.2653
 5963TIP3   OH244811   2.294   0.271   6.396 -0.1848  0.3206  0.8441
 5963TIP3    H144812   2.256   0.357   6.411  0.6931  0.8537  0.1032
 5963TIP3    H244813   2.345   0.254   6.475 -1.2126 -0.0120  1.4573
 5964TIP3   OH244814   3.600   8.062   6.507 -0.2390  0.3292 -0.9283
 5964TIP3    H144815   3.687   8.046   6.543 -0.9837 -0.2893  0.6787
 5964TIP3    H244816   3.597   8.156   6.491  0.0415  0.6810  0.9118
 5965TIP3   OH244817   4.192   4.052   0.167 -0.2286  0.7032  0.2033
 5965TIP3    H144818   4.122   4.028   0.106 -1.9836  2.2837  1.4580
 5965TIP3    H244819   4.191   3.982   0.232  0.9980 -0.4864 -1.0036
 5966TIP3   OH244820   2.337   6.255   0.581  0.0345  0.9784 -0.1354
 5966TIP3    H144821   2.318   6.277   0.490  2.3288  0.7757 -0.7171
 5966TIP3    H244822   2.414   6.307   0.603  1.2277 -1.0649  0.7649
 5967TIP3   OH244823   7.405   3.308   6.460  0.4586  0.3385 -0.5216
 5967TIP3    H144824   7.354   3.354   6.394 -0.2351  0.6375  0.2077
 5967TIP3    H244825   7.379   3.347   6.543  0.0583 -1.1721  0.1015
 5968TIP3   OH244826   6.738   8.154   1.858 -0.5233  0.2738 -0.3493
 5968TIP3    H144827   6.792   8.196   1.924 -0.0198  1.4800 -1.4782
 5968TIP3    H244828   6.649   8.187   1.874 -0.9156 -1.4026  1.2557
 5969TIP3   OH244829   7.330   8.222   6.597  0.2010  0.2206  0.4500
 5969TIP3    H144830   7.324   8.225   6.692  0.7964 -1.3259  0.5742
 5969TIP3    H244831   7.413   8.267   6.577  0.1416  0.4296  0.6729
 5970TIP3   OH244832   0.754   3.253   0.871  0.0510  0.1017 -0.3294
 5970TIP3    H144833   0.671   3.207   0.878  0.5289 -0.6262  0.7517
 5970TIP3    H244834   0.753   3.317   0.943  1.6552 -1.9887  1.7174
 5971TIP3   OH244835   5.536   8.463   1.232  0.2285 -0.5737  0.5621
 5971TIP3    H144836   5.617   8.411   1.229  0.3173 -0.4253  0.3789
 5971TIP3    H244837   5.565   0.018   1.237  0.1034 -0.3977 -1.3160
 5972TIP3   OH244838   6.977   3.892   0.877 -0.1089  0.8610 -0.2556
 5972TIP3    H144839   7.050   3.947   0.907 -0.4529  0.5302  1.2707
 5972TIP3    H244840   7.013   3.804   0.873  0.2557  1.0495 -2.0475
 5973TIP3   OH244841   5.609   5.738   0.460  0.1387  1.2655 -0.1112
 5973TIP3    H144842   5.535   5.706   0.408 -0.6410  1.1700  1.0035
 5973TIP3    H244843   5.618   5.674   0.530  0.4850  1.9153  0.4553
 5974TIP3   OH244844   6.372   0.098   1.803  0.0431  0.1561  0.2389
 5974TIP3    H144845   6.327   0.042   1.867 -0.0169 -1.1455 -0.9090
 5974TIP3    H244846   6.305   0.160   1.775  0.2005  1.0738  1.7831
 5975TIP3   OH244847   4.720   3.583   0.289 -0.0696 -0.0331  0.0403
 5975TIP3    H144848   4.639   3.625   0.317 -0.0242  0.8412 -1.0830
 5975TIP3    H244849   4.692   3.501   0.248 -0.2125 -0.7408  1.4695
 5976TIP3   OH244850   6.775   0.338   5.938 -0.0266 -0.0244 -0.2145
 5976TIP3    H144851   6.800   0.353   6.029 -0.0491  0.7696 -0.3340
 5976TIP3    H244852   6.686   0.304   5.943  0.3211 -0.9393  0.1028
 5977TIP3   OH244853   7.152   1.980   5.788 -0.4232 -0.0427 -0.5563
 5977TIP3    H144854   7.190   1.929   5.860 -0.3773 -0.4349 -0.8547
 5977TIP3    H244855   7.078   2.025   5.828 -0.9397 -0.9535 -0.4486
 5978TIP3   OH244856   7.628   3.026   5.046 -0.1344 -0.3802  0.0878
 5978TIP3    H144857   7.695   2.958   5.038  1.1757  0.8093  0.4225
 5978TIP3    H244858   7.620   3.062   4.957  1.2197  0.8378  0.4186
 5979TIP3   OH244859   0.264   2.648   5.834  0.0880 -0.4034 -0.0496
 5979TIP3    H144860   0.251   2.602   5.917 -0.1297  0.1102  0.2084
 5979TIP3    H244861   0.176   2.673   5.806  0.3215  1.7164  0.9098
 5980TIP3   OH244862   3.900   8.354   6.414 -0.3042 -0.1123  0.3846
 5980TIP3    H144863   3.904   8.321   6.504 -0.0909  0.7171  0.6920
 5980TIP3    H244864   3.902   8.275   6.360 -0.6615 -0.6368  1.1071
 5981TIP3   OH244865   6.444   8.187   1.769 -0.2098  0.1718  0.4237
 5981TIP3    H144866   6.431   8.092   1.773  0.4250  0.0613  0.1070
 5981TIP3    H244867   6.356   8.223   1.768 -0.4565 -0.3552  1.6686
 5982TIP3   OH244868   2.699   4.932   6.240 -0.4066  0.2263  0.1922
 5982TIP3    H144869   2.667   4.846   6.269  0.1737 -0.0317  0.0961
 5982TIP3    H244870   2.754   4.912   6.164 -0.6828  0.7403 -0.1444
 5983TIP3   OH244871   1.084   6.659   5.213 -0.3577 -0.1327 -0.1835
 5983TIP3    H144872   1.174   6.689   5.197 -0.4966  1.1479  1.2673
 5983TIP3    H244873   1.095   6.583   5.271 -0.2346  0.4196  0.5229
 5984TIP3   OH244874   4.445   7.612   6.036 -0.0129 -0.4208  0.6940
 5984TIP3    H144875   4.515   7.654   5.986  0.7242 -0.4376  1.6824
 5984TIP3    H244876   4.449   7.520   6.010  1.3936 -0.7285  1.9057
 5985TIP3   OH244877   4.005   4.386   1.594 -0.2106  0.1763 -0.1027
 5985TIP3    H144878   3.931   4.439   1.622  1.4031  2.1604  0.7061
 5985TIP3    H244879   4.062   4.447   1.547 -0.4137 -1.9257 -3.4142
 5986TIP3   OH244880   1.170   1.007   6.850  0.5340  0.3533  0.3227
 5986TIP3    H144881   1.168   1.076   6.916  0.5771  0.0018  0.6936
 5986TIP3    H244882   1.221   0.937   6.890  0.0401 -0.1065  0.1573
 5987TIP3   OH244883   6.017   3.620   0.627 -0.4031  0.4681 -0.3898
 5987TIP3    H144884   5.922   3.634   0.633 -0.6528 -1.0237 -0.3017
 5987TIP3    H244885   6.045   3.612   0.718 -0.0632  1.5647 -0.3878
 5988TIP3   OH244886   5.316   7.466   5.942 -0.2916 -0.2944 -0.8360
 5988TIP3    H144887   5.261   7.499   5.871 -0.9765 -3.1589 -1.7900
 5988TIP3    H244888   5.254   7.425   6.003  0.5472 -0.7842 -0.2887
 5989TIP3   OH244889   6.319   3.100   6.958 -0.6235  0.1897  0.4414
 5989TIP3    H144890   6.323   3.024   6.900 -0.8151 -0.7418  1.6051
 5989TIP3    H244891   6.235   3.141   6.939 -1.1630 -0.7288  0.8079
 5990TIP3   OH244892   5.539   2.827   6.931  0.1951 -0.2870  0.6017
 5990TIP3    H144893   5.507   2.916   6.946  0.4299  0.0522 -0.7599
 5990TIP3    H244894   5.511   2.778   7.008 -3.6202 -0.0460 -0.4434
 5991TIP3   OH244895   0.444   2.981   1.715  0.0796  0.0199 -0.2385
 5991TIP3    H144896   0.496   2.923   1.771 -0.5099  0.9526  1.3465
 5991TIP3    H244897   0.492   3.064   1.716 -0.7283  0.4937  0.1580
 5992TIP3   OH244898   0.212   2.097   0.969  0.5016 -0.1126  0.0705
 5992TIP3    H144899   0.204   2.155   0.894 -0.4817  0.0772  0.3027
 5992TIP3    H244900   0.212   2.009   0.931  0.3043 -0.0080 -0.1760
 5993TIP3   OH244901   4.040   3.623   6.830  0.0348  0.0870  0.0783
 5993TIP3    H144902   3.968   3.641   6.769  0.5523  0.9264 -0.3087
 5993TIP3    H244903   4.068   3.534   6.808  0.9608  0.7777 -1.7156
 5994TIP3   OH244904   4.808   8.348   1.398 -0.2174  0.4824 -0.3541
 5994TIP3    H144905   4.864   8.395   1.460 -1.4966  1.5767  0.0233
 5994TIP3    H244906   4.822   8.393   1.314 -0.5880  0.8289 -0.2358
 5995TIP3   OH244907   0.980   5.450   1.874  0.4174 -0.5156  0.2270
 5995TIP3    H144908   0.884   5.450   1.878  0.4296  0.1117  0.6827
 5995TIP3    H244909   1.000   5.397   1.797 -0.2735 -1.1874  0.4925
 5996TIP3   OH244910   3.527   1.204   5.999 -0.0907  0.0962  0.0216
 5996TIP3    H144911   3.548   1.182   5.908 -1.0861  1.6567 -0.6450
 5996TIP3    H244912   3.431   1.204   6.002 -0.0906  1.2363  0.7325
 5997TIP3   OH244913   2.621   2.404   0.154 -0.3021  0.3758 -0.3995
 5997TIP3    H144914   2.686   2.393   0.084  1.6757 -0.9302  1.5201
 5997TIP3    H244915   2.592   2.315   0.174  0.2040  0.5618  1.3278
 5998TIP3   OH244916   4.211   5.050   5.239 -0.5407  0.4457  0.0233
 5998TIP3    H144917   4.153   5.125   5.247  0.0529  0.8355  0.7984
 5998TIP3    H244918   4.167   4.992   5.176 -0.8904  1.5311 -0.7563
 5999TIP3   OH244919   7.181   7.492   6.281 -0.0440 -0.0620  0.0087
 5999TIP3    H144920   7.269   7.513   6.250  0.3875 -1.5750  0.1007
 5999TIP3    H244921   7.187   7.400   6.309 -1.9278 -0.5817 -1.0759
 6000TIP3   OH244922   5.119   7.761   5.201 -0.1166 -0.2124 -0.2207
 6000TIP3    H144923   5.148   7.852   5.192 -1.3820  0.0385 -2.8543
 6000TIP3    H244924   5.199   7.712   5.218  0.9004  1.1887 -0.7446
 6001TIP3   OH244925   4.038   1.572   0.573 -0.6254 -0.5424  1.2440
 6001TIP3    H144926   4.001   1.486   0.554  0.3572 -0.9539  1.1315
 6001TIP3    H244927   3.995   1.599   0.654 -1.9522 -0.5178  0.5465
 6002TIP3   OH244928   4.931   4.095   1.438  0.1475  0.4867 -0.4077
 6002TIP3    H144929   4.856   4.097   1.498 -2.2157  0.4691 -3.1704
 6002TIP3    H244930   4.980   4.016   1.464 -1.1854  0.0530  0.9765
 6003TIP3   OH244931   1.440   3.886   4.945 -0.0032  0.6745 -0.0157
 6003TIP3    H144932   1.375   3.817   4.948 -2.6231  2.9079 -1.1353
 6003TIP3    H244933   1.422   3.933   4.864  1.7192  2.6250  0.6269
 6004TIP3   OH244934   7.705   4.718   6.037  0.6041 -0.7230  0.1827
 6004TIP3    H144935   7.743   4.783   6.096 -0.2239 -1.0697  1.1338
 6004TIP3    H244936   7.740   4.635   6.069  1.8058 -0.7689 -1.1428
 6005TIP3   OH244937   1.686   4.721   6.310  0.9883 -0.4671 -0.2192
 6005TIP3    H144938   1.689   4.670   6.391 -1.1798 -0.0595  0.1875
 6005TIP3    H244939   1.670   4.811   6.338 -0.3385 -0.4030 -1.0576
 6006TIP3   OH244940   4.076   4.256   0.333  0.0831 -0.5365 -0.3114
 6006TIP3    H144941   4.121   4.225   0.411  2.7487 -0.4295 -1.6785
 6006TIP3    H244942   4.099   4.193   0.265 -2.7672 -1.0407 -0.9335
 6007TIP3   OH244943   0.748   5.570   0.383  0.0557 -0.0125 -0.0513
 6007TIP3    H144944   0.841   5.550   0.370 -0.0527 -0.4563 -0.1788
 6007TIP3    H244945   0.703   5.490   0.355 -0.5434  1.2024 -2.7596
 6008TIP3   OH244946   1.002   8.242   6.808  0.4383 -0.8271  0.1619
 6008TIP3    H144947   0.945   8.165   6.804 -1.0111  0.2299 -0.3376
 6008TIP3    H244948   1.013   8.259   6.902 -0.7047 -0.6185  0.2719
 6009TIP3   OH244949   8.416   0.889   0.198  0.0885  0.0604  0.3334
 6009TIP3    H144950   8.468   0.809   0.211 -0.4897 -0.3585  0.0894
 6009TIP3    H244951   8.470   0.958   0.236 -0.2881 -0.7049  2.3770
 6010TIP3   OH244952   3.674   0.321   0.405 -0.0540 -0.0920  0.4321
 6010TIP3    H144953   3.628   0.401   0.429 -1.4570 -0.3485 -1.2213
 6010TIP3    H244954   3.738   0.348   0.340  0.1083 -0.1804  0.5536
 6011TIP3   OH244955   5.477   3.705   0.810 -0.2244 -0.0205  0.2225
 6011TIP3    H144956   5.435   3.750   0.736 -2.0294 -1.2738  0.4245
 6011TIP3    H244957   5.571   3.713   0.793 -0.5279 -2.0259 -3.3708
 6012TIP3   OH244958   3.358   6.573   5.765  0.1373 -0.0437 -0.0965
 6012TIP3    H144959   3.296   6.584   5.693 -1.4561  2.7071  1.5217
 6012TIP3    H244960   3.427   6.638   5.747  1.7553 -1.9102 -0.9856
 6013TIP3   OH244961   6.715   0.509   0.410 -0.3728  0.5338  0.1579
 6013TIP3    H144962   6.624   0.495   0.435 -0.1420 -1.1270  0.1940
 6013TIP3    H244963   6.712   0.536   0.319 -0.8687 -0.2022 -0.0452
 6014TIP3   OH244964   5.401   4.639   1.414 -0.5901 -0.6851  0.0492
 6014TIP3    H144965   5.401   4.717   1.359 -0.5458 -0.7012  0.0260
 6014TIP3    H244966   5.493   4.619   1.427 -0.5947 -1.2486 -0.6892
 6015TIP3   OH244967   3.698   6.892   0.874  0.2847  0.0695  0.1630
 6015TIP3    H144968   3.651   6.974   0.888  0.3813  0.1285  0.1453
 6015TIP3    H244969   3.790   6.914   0.892  0.3043 -0.0450  0.1996
 6016TIP3   OH244970   5.476   5.652   6.359 -0.2115 -0.4555  0.2008
 6016TIP3    H144971   5.538   5.719   6.331  0.0382 -1.1641 -1.0679
 6016TIP3    H244972   5.517   5.611   6.435 -0.3518  0.7739  0.9650
 6017TIP3   OH244973   2.571   7.723   0.454  0.1235  0.3955  0.1450
 6017TIP3    H144974   2.621   7.658   0.405 -1.7633 -0.6079 -0.5633
 6017TIP3    H244975   2.618   7.733   0.537  1.5248 -0.3835 -0.5235
 6018TIP3   OH244976   7.617   7.583   6.825  0.1589  0.1375 -0.0565
 6018TIP3    H144977   7.630   7.568   6.919 -1.1246 -0.3021  0.0624
 6018TIP3    H244978   7.630   7.678   6.815 -0.1539  0.2648  0.6452
 6019TIP3   OH244979   0.078   5.784   0.037 -0.0028  0.2258  0.6892
 6019TIP3    H144980   0.101   5.877   0.043  0.2342  0.3412 -1.2640
 6019TIP3    H244981   0.162   5.739   0.027 -0.1614 -0.1368  0.9581
 6020TIP3   OH244982   6.656   0.500   0.963  0.1861 -0.2009  0.3775
 6020TIP3    H144983   6.681   0.476   1.052  1.8312  1.5929  0.4630
 6020TIP3    H244984   6.587   0.566   0.974  0.0071 -0.3700  0.2892
 6021TIP3   OH244985   4.460   8.321   6.988 -0.0172  0.1767 -0.0777
 6021TIP3    H144986   4.515   8.377   7.042 -1.7452  1.4058  0.5103
 6021TIP3    H244987   4.512   8.242   6.973  1.6732  1.0771  0.8359
 6022TIP3   OH244988   4.004   0.507   1.452  0.0162  0.3383 -0.0476
 6022TIP3    H144989   3.949   0.575   1.491 -0.5266  0.4321 -0.9529
 6022TIP3    H244990   3.953   0.427   1.459  0.3902  0.1333  0.4353
 6023TIP3   OH244991   6.138   7.715   6.411  0.0973  0.1907 -0.8141
 6023TIP3    H144992   6.133   7.693   6.504 -1.6212 -1.5461 -1.2602
 6023TIP3    H244993   6.207   7.658   6.376 -1.8987 -2.1059 -1.2717
 6024TIP3   OH244994   1.755   8.135   5.583 -0.0107  0.0343  0.0550
 6024TIP3    H144995   1.815   8.153   5.655  0.0922 -0.8137  0.1993
 6024TIP3    H244996   1.810   8.102   5.513 -0.4027 -2.0730  0.6608
 6025TIP3   OH244997   3.608   2.390   1.168 -0.5390 -0.0945 -0.2359
 6025TIP3    H144998   3.602   2.295   1.181  0.1026 -0.1434 -0.2757
 6025TIP3    H244999   3.564   2.428   1.244 -0.4663 -0.4249 -0.0279
 6026TIP3   OH245000   7.300   3.293   5.339  0.1665 -0.0658 -0.0859
 6026TIP3    H145001   7.395   3.290   5.336  0.1306 -0.5362 -1.1428
 6026TIP3    H245002   7.272   3.256   5.255 -0.9196  1.1141 -0.2705
 6027TIP3   OH245003   1.762   8.314   6.697  0.4575  0.1241 -0.1405
 6027TIP3    H145004   1.721   8.381   6.642  2.0391  3.1269  1.9920
 6027TIP3    H245005   1.689   8.265   6.735 -1.0175  2.4444  0.2129
 6028TIP3   OH245006   6.947   4.305   6.848 -0.5523 -0.5649  0.1126
 6028TIP3    H145007   6.879   4.371   6.837  0.3887  0.3067 -0.6847
 6028TIP3    H245008   6.935   4.272   6.937 -1.8118 -0.2085  0.0892
 6029TIP3   OH245009   0.583   4.635   1.702  0.2883  0.6408  0.1182
 6029TIP3    H145010   0.549   4.607   1.617  1.1411  3.1737 -1.1938
 6029TIP3    H245011   0.509   4.625   1.762  0.2401 -3.1373 -0.3361
 6030TIP3   OH245012   5.066   7.744   6.079  0.0559 -0.1794 -0.1235
 6030TIP3    H145013   5.016   7.679   6.028 -0.4544 -0.4961  0.7607
 6030TIP3    H245014   5.070   7.821   6.022 -1.6120 -0.0868 -0.1630
 6031TIP3   OH245015   3.967   5.065   6.919  0.3749  0.1467  0.0817
 6031TIP3    H145016   3.968   4.986   6.973  0.3046 -0.2364 -0.4686
 6031TIP3    H245017   4.048   5.111   6.942  0.1289  0.2141  0.8337
 6032TIP3   OH245018   6.999   4.402   6.244  0.8588  0.4915 -0.8343
 6032TIP3    H145019   6.951   4.407   6.162  0.6446  0.4453 -0.7134
 6032TIP3    H245020   7.043   4.487   6.251  0.7524  0.5546 -0.9209
 6033TIP3   OH245021   5.088   5.787   6.095  0.0271  0.4375  0.5235
 6033TIP3    H145022   5.120   5.812   6.182 -0.1302  1.8999  0.1735
 6033TIP3    H245023   5.152   5.823   6.034 -0.6355  0.7089 -0.0315
 6034TIP3   OH245024   7.618   5.646   5.469  0.0197  0.6620 -0.1601
 6034TIP3    H145025   7.609   5.566   5.520  1.9764  1.8578  2.2926
 6034TIP3    H245026   7.711   5.648   5.443 -0.1080  1.8804 -0.6139
 6035TIP3   OH245027   2.163   6.882   0.370  0.3325 -0.7697  0.2484
 6035TIP3    H145028   2.160   6.786   0.367  2.2349 -0.8407 -1.0216
 6035TIP3    H245029   2.084   6.907   0.419  0.2865 -3.0045  1.4405
 6036TIP3   OH245030   5.451   1.517   1.059 -0.5399 -0.0213  0.4687
 6036TIP3    H145031   5.529   1.554   1.018 -0.9356  1.7348  1.2116
 6036TIP3    H245032   5.389   1.590   1.063 -2.0407 -1.2336  0.3905
 6037TIP3   OH245033   5.670   7.580   5.404  0.2586 -0.4315 -0.3521
 6037TIP3    H145034   5.737   7.550   5.465  1.5696 -1.1783 -2.0650
 6037TIP3    H245035   5.635   7.500   5.365 -1.0825 -0.0071 -0.0818
 6038TIP3   OH245036   8.047   3.024   2.120 -0.3952 -0.0366 -0.5341
 6038TIP3    H145037   8.042   3.075   2.039  2.2843  1.2355  0.0007
 6038TIP3    H245038   8.139   2.998   2.126 -0.2057  1.0224  2.7442
 6039TIP3   OH245039   2.820   2.020   0.988 -0.6754 -0.4539  0.6956
 6039TIP3    H145040   2.819   2.111   1.019  0.5556 -0.9670  2.3689
 6039TIP3    H245041   2.905   2.010   0.944 -1.5415 -0.3380 -1.1074
 6040TIP3   OH245042   1.726   3.487   0.376  0.7330 -0.4777 -0.6504
 6040TIP3    H145043   1.778   3.444   0.444 -0.5975 -1.1868 -0.0520
 6040TIP3    H245044   1.741   3.581   0.390  0.7355 -0.6311  0.4023
 6041TIP3   OH245045   0.218   5.066   0.680  0.0536 -0.2590  0.4562
 6041TIP3    H145046   0.273   4.988   0.686  0.6460  0.0699 -0.5123
 6041TIP3    H245047   0.278   5.136   0.656 -0.8779 -0.0337 -1.3982
 6042TIP3   OH245048   4.984   0.984   5.762 -0.3031  0.7196  0.0664
 6042TIP3    H145049   5.024   1.064   5.726 -0.3933  0.7280 -0.0137
 6042TIP3    H245050   4.939   0.944   5.688 -0.3567  0.6547  0.1347
 6043TIP3   OH245051   0.447   4.256   5.955  0.3255 -0.2177 -0.3498
 6043TIP3    H145052   0.459   4.189   5.888  0.1797 -1.7712  1.1061
 6043TIP3    H245053   0.521   4.315   5.943  1.7840 -1.9267 -0.2524
 6044TIP3   OH245054   5.418   5.659   6.812  0.5726  0.0520 -0.2678
 6044TIP3    H145055   5.504   5.661   6.770  0.3059  0.4409 -0.8110
 6044TIP3    H245056   5.356   5.664   6.739  0.0970  1.2350  0.1978
 6045TIP3   OH245057   0.811   4.303   5.827 -0.3101 -0.0264  0.3655
 6045TIP3    H145058   0.885   4.317   5.886  0.0069  0.2636 -0.0969
 6045TIP3    H245059   0.793   4.209   5.834  1.9852 -0.7342 -1.6916
 6046TIP3   OH245060   1.951   1.886   5.143  0.8433  0.4349  0.5284
 6046TIP3    H145061   1.956   1.942   5.066  0.2409  2.6104  1.9852
 6046TIP3    H245062   1.863   1.849   5.140  1.5327 -1.2048 -0.8910
 6047TIP3   OH245063   7.474   0.904   0.126  0.5285  0.7514 -0.2813
 6047TIP3    H145064   7.405   0.899   0.192  2.2311 -1.0976  1.5105
 6047TIP3    H245065   7.444   0.847   0.055  0.0429  0.2601  0.3085
 6048TIP3   OH245066   0.567   4.863   6.109 -0.5887  0.0355  0.4607
 6048TIP3    H145067   0.557   4.816   6.026 -3.7446 -1.9264  1.7729
 6048TIP3    H245068   0.661   4.868   6.123 -0.0153 -1.4271 -2.2157
 6049TIP3   OH245069   1.377   2.806   0.857 -0.2178  0.1826 -0.5407
 6049TIP3    H145070   1.356   2.842   0.943 -3.2331 -1.7018 -0.3084
 6049TIP3    H245071   1.454   2.854   0.829  0.2567  1.6315  2.7251
 6050TIP3   OH245072   1.794   3.081   6.643  0.2872 -0.1491 -0.1488
 6050TIP3    H145073   1.782   3.176   6.654 -0.3029 -0.3194  0.7279
 6050TIP3    H245074   1.841   3.073   6.559  1.0638  0.9554  0.1525
 6051TIP3   OH245075   6.608   3.880   5.727 -0.2537  0.1075 -0.3191
 6051TIP3    H145076   6.681   3.931   5.690 -0.2867  0.7001  0.4095
 6051TIP3    H245077   6.648   3.801   5.761  0.2383  0.9263  1.0751
 6052TIP3   OH245078   3.234   6.324   5.284 -0.2209 -0.8076 -0.4334
 6052TIP3    H145079   3.214   6.262   5.214 -0.9747  0.0294 -0.9789
 6052TIP3    H245080   3.288   6.391   5.243 -1.3729  0.1410 -0.4493
 6053TIP3   OH245081   2.504   4.579   0.622 -0.4130  0.2367 -0.4144
 6053TIP3    H145082   2.545   4.530   0.693  0.0451  0.4608 -0.5235
 6053TIP3    H245083   2.528   4.532   0.542 -1.3486 -0.3096 -0.3902
 6054TIP3   OH245084   0.818   4.066   6.558 -0.1405  0.4270  0.3726
 6054TIP3    H145085   0.783   4.078   6.469  1.5352  0.3540 -0.3405
 6054TIP3    H245086   0.744   4.034   6.609 -1.1415  0.4429 -1.0071
 6055TIP3   OH245087   5.889   7.590   1.024  0.2833 -0.2969  0.4570
 6055TIP3    H145088   5.893   7.684   1.006  2.1329 -0.4283  0.0103
 6055TIP3    H245089   5.922   7.581   1.114  1.2344 -0.6150  0.0831
 6056TIP3   OH245090   7.540   1.348   1.635 -0.0134 -0.4017  0.0116
 6056TIP3    H145091   7.626   1.380   1.607 -0.1431  0.7422  0.8216
 6056TIP3    H245092   7.499   1.317   1.554  0.7157  0.1182 -0.5799
 6057TIP3   OH245093   1.182   5.815   0.101  0.7295 -0.2176  0.1295
 6057TIP3    H145094   1.161   5.903   0.133  1.5031  0.2755 -0.6552
 6057TIP3    H245095   1.272   5.823   0.068  0.5734 -1.1389 -0.5503
 6058TIP3   OH245096   7.191   0.804   0.095  0.1448  0.0578  0.0317
 6058TIP3    H145097   7.101   0.772   0.089 -0.0795  0.6433  0.2324
 6058TIP3    H245098   7.244   0.725   0.104 -0.4705 -0.2346  1.2922
 6059TIP3   OH245099   4.269   2.229   6.851 -0.3902 -0.3381  0.0740
 6059TIP3    H145100   4.196   2.289   6.866  0.7986  1.0341  0.6498
 6059TIP3    H245101   4.320   2.270   6.781 -0.2389 -1.3640 -0.4449
 6060TIP3   OH245102   5.397   4.798   1.736 -0.5319  0.1655 -0.3251
 6060TIP3    H145103   5.439   4.880   1.760 -1.4155  0.6445 -0.3544
 6060TIP3    H245104   5.469   4.739   1.712  0.1357  0.7820  0.1357
 6061TIP3   OH245105   3.929   6.492   0.169 -0.4644 -0.4009 -0.2573
 6061TIP3    H145106   3.884   6.422   0.217  0.1274 -0.5714  0.0599
 6061TIP3    H245107   3.867   6.565   0.170 -0.0139  0.0239  1.8646
 6062TIP3   OH245108   0.143   4.591   0.906 -0.0225 -0.6592 -0.5327
 6062TIP3    H145109   0.233   4.619   0.889 -0.3607  0.9449  0.0836
 6062TIP3    H245110   0.129   4.610   0.998 -1.4465  0.5780 -0.9598
 6063TIP3   OH245111   6.460   3.349   5.334  0.3700 -0.1241  0.3236
 6063TIP3    H145112   6.368   3.361   5.356  0.0446 -2.5485  0.4650
 6063TIP3    H245113   6.460   3.326   5.241  1.0892  2.1120 -0.3087
 6064TIP3   OH245114   5.788   7.222   1.177  0.1512  0.1270  0.0456
 6064TIP3    H145115   5.751   7.199   1.091  1.4412  0.0784 -0.5308
 6064TIP3    H245116   5.742   7.165   1.239  0.9461 -1.6957 -0.9469
 6065TIP3   OH245117   5.475   0.870   1.703  0.4042  0.4088 -0.2145
 6065TIP3    H145118   5.454   0.791   1.653 -0.4827 -0.7264  1.8167
 6065TIP3    H245119   5.556   0.902   1.664 -0.4309 -0.1471 -2.5984
 6066TIP3   OH245120   3.692   2.156   6.324 -0.4414  0.2856 -0.0427
 6066TIP3    H145121   3.606   2.174   6.361 -1.6625 -2.2293 -1.4545
 6066TIP3    H245122   3.752   2.164   6.398 -2.0633  0.6545  1.2914
 6067TIP3   OH245123   4.469   0.551   0.098 -0.4840  0.1519  0.2726
 6067TIP3    H145124   4.531   0.508   0.038 -3.0585 -1.7637 -1.2515
 6067TIP3    H245125   4.492   0.644   0.093 -1.0465  0.3148 -4.5542
 6068TIP3   OH245126   1.764   4.750   0.496 -0.1233 -0.1320  0.0232
 6068TIP3    H145127   1.809   4.821   0.541  1.0770 -1.6390  1.3280
 6068TIP3    H245128   1.808   4.744   0.411  1.6954 -1.0323  0.9517
 6069TIP3   OH245129   6.464   0.421   5.296 -0.0060 -0.0484  0.8981
 6069TIP3    H145130   6.400   0.484   5.329  0.2352  0.0526  1.1840
 6069TIP3    H245131   6.486   0.453   5.208 -0.7236 -0.3732  0.5910
 6070TIP3   OH245132   4.453   1.161   0.933  0.0757  0.3227  0.3421
 6070TIP3    H145133   4.452   1.068   0.955  0.0354  0.0756 -0.6827
 6070TIP3    H245134   4.537   1.175   0.891 -0.2995  0.5512 -0.3381
 6071TIP3   OH245135   5.142   3.471   6.906  0.1458  0.1345  0.3880
 6071TIP3    H145136   5.139   3.387   6.859  0.6200  1.0512 -1.3510
 6071TIP3    H245137   5.236   3.486   6.921  0.0851  0.5609  0.3357
 6072TIP3   OH245138   5.497   3.104   1.724 -0.3890  0.0208  0.3088
 6072TIP3    H145139   5.575   3.049   1.712  0.6092  1.3595  0.3846
 6072TIP3    H245140   5.529   3.178   1.775 -1.5335  1.0278 -0.4070
 6073TIP3   OH245141   0.506   3.085   0.487 -0.5763  0.9194  0.4158
 6073TIP3    H145142   0.449   3.125   0.422 -1.5645  0.2023  0.8233
 6073TIP3    H245143   0.458   3.093   0.570 -0.0158  0.4565  0.7972
 6074TIP3   OH245144   1.319   5.557   6.174 -0.1560  0.0341  0.0316
 6074TIP3    H145145   1.367   5.600   6.245  0.2257 -2.9090  1.6838
 6074TIP3    H245146   1.384   5.544   6.105  0.8873 -1.7256  1.2809
 6075TIP3   OH245147   7.119   7.814   5.459 -0.5010  0.6053  0.0572
 6075TIP3    H145148   7.069   7.880   5.411 -0.2286 -0.4720 -1.7812
 6075TIP3    H245149   7.053   7.752   5.491 -0.5442  0.4828 -0.2737
 6076TIP3   OH245150   4.156   2.045   6.632  0.7308  0.4635 -0.5353
 6076TIP3    H145151   4.211   1.966   6.639  0.2060  0.1171 -0.2351
 6076TIP3    H245152   4.182   2.098   6.707 -0.3996 -0.3922  0.5202
 6077TIP3   OH245153   1.628   6.856   5.745  0.5950 -0.4722 -0.0672
 6077TIP3    H145154   1.615   6.909   5.666  1.9202  1.5446  0.9847
 6077TIP3    H245155   1.698   6.794   5.721 -0.3864 -1.2471 -1.0440
 6078TIP3   OH245156   3.384   0.419   6.636 -0.5999  0.3452  0.5917
 6078TIP3    H145157   3.400   0.366   6.558 -2.7093  3.2037 -1.9817
 6078TIP3    H245158   3.293   0.401   6.659 -0.6234  1.1265  1.1378
 6079TIP3   OH245159   3.242   4.127   6.137 -0.0285 -0.0723 -1.0702
 6079TIP3    H145160   3.292   4.046   6.140  0.4566  0.1779 -1.9943
 6079TIP3    H245161   3.273   4.172   6.058 -1.9873 -0.0871 -1.8992
 6080TIP3   OH245162   0.721   7.790   0.742 -0.3533 -0.1071  0.2534
 6080TIP3    H145163   0.653   7.850   0.770 -0.7249 -0.3415 -0.1373
 6080TIP3    H245164   0.721   7.720   0.807 -0.2445  0.0680  0.4438
 6081TIP3   OH245165   1.104   5.602   0.376 -0.7535 -0.5030  0.3843
 6081TIP3    H145166   1.099   5.698   0.378 -0.5325 -0.3821 -1.9659
 6081TIP3    H245167   1.197   5.583   0.380 -0.5701 -0.4147 -1.9817
 6082TIP3   OH245168   2.706   7.788   0.899  0.0735  0.6855  0.5889
 6082TIP3    H145169   2.766   7.719   0.927 -0.3482  0.3866  0.7555
 6082TIP3    H245170   2.671   7.824   0.981 -1.4494 -0.4361  0.4788
 6083TIP3   OH245171   4.035   5.995   6.344 -0.1210  0.1663 -0.2221
 6083TIP3    H145172   4.000   5.959   6.425  0.6966 -0.4715 -0.1429
 6083TIP3    H245173   4.128   5.972   6.345 -0.2756 -0.6587 -1.7628
 6084TIP3   OH245174   6.484   5.198   0.720 -0.2343  0.5462  0.3242
 6084TIP3    H145175   6.576   5.169   0.723 -0.4860 -0.2040  2.4327
 6084TIP3    H245176   6.489   5.294   0.727  0.3838  0.5882 -0.4517
 6085TIP3   OH245177   4.974   0.184   6.555  0.6461 -0.0869  0.3873
 6085TIP3    H145178   4.919   0.262   6.544  0.2018 -0.4846 -0.3654
 6085TIP3    H245179   4.917   0.111   6.529  1.9035 -0.3951 -1.7940
 6086TIP3   OH245180   2.705   7.158   0.707 -0.4718  0.7452 -0.1001
 6086TIP3    H145181   2.691   7.066   0.730 -0.6555 -0.4527 -4.1130
 6086TIP3    H245182   2.798   7.173   0.721 -0.0214 -0.7510 -1.2456
 6087TIP3   OH245183   4.677   1.306   0.311 -0.2886 -0.4450  0.2423
 6087TIP3    H145184   4.754   1.284   0.365  0.3531 -0.6302 -0.7185
 6087TIP3    H245185   4.676   1.401   0.309 -0.7621 -0.4177  1.1858
 6088TIP3   OH245186   6.573   1.637   5.338  0.3314  0.7903  0.3058
 6088TIP3    H145187   6.642   1.671   5.281  1.7373 -1.1780  0.7266
 6088TIP3    H245188   6.518   1.583   5.280  1.2991 -0.5673  0.6073
 6089TIP3   OH245189   2.605   5.867   1.122 -0.0793  0.1332  0.3954
 6089TIP3    H145190   2.626   5.943   1.176 -2.3664  1.5054 -0.4974
 6089TIP3    H245191   2.670   5.868   1.052  1.7154 -0.5323  1.9557
 6090TIP3   OH245192   3.827   3.164   5.739 -0.6774  0.7197 -0.3774
 6090TIP3    H145193   3.755   3.125   5.788 -0.3330  0.4667 -0.0613
 6090TIP3    H245194   3.851   3.099   5.674 -0.2594  0.4935 -0.0049
 6091TIP3   OH245195   3.173   1.106   6.253  0.2096 -0.0867 -0.3919
 6091TIP3    H145196   3.240   1.067   6.310  0.1777  0.2972 -0.0883
 6091TIP3    H245197   3.091   1.068   6.283  0.5276 -3.3202 -2.9981
 6092TIP3   OH245198   1.292   6.077   0.965  0.0390 -0.3505 -0.3048
 6092TIP3    H145199   1.225   6.021   0.926 -0.7382 -0.3976  1.0169
 6092TIP3    H245200   1.338   6.020   1.026 -0.5593  0.3328  0.8280
 6093TIP3   OH245201   6.850   2.358   1.582  0.6711 -0.9614  0.0238
 6093TIP3    H145202   6.922   2.361   1.646  0.6628  1.1511 -0.0040
 6093TIP3    H245203   6.771   2.367   1.635  0.5944 -0.4395 -0.1780
 6094TIP3   OH245204   5.997   2.178   0.980 -0.0609 -0.4515 -0.1068
 6094TIP3    H145205   6.034   2.090   0.979 -0.8464 -0.8022  0.3250
 6094TIP3    H245206   6.068   2.234   1.013  0.1464 -1.0702  0.5271
 6095TIP3   OH245207   8.101   1.758   6.654  0.0990 -0.1867  0.5941
 6095TIP3    H145208   8.022   1.704   6.662  0.8656 -1.3349  0.7402
 6095TIP3    H245209   8.098   1.790   6.563 -1.1618  0.8429  0.9683
 6096TIP3   OH245210   6.483   8.171   6.671 -0.1737  0.4348 -0.5791
 6096TIP3    H145211   6.408   8.153   6.614  1.2341  0.9172 -2.7053
 6096TIP3    H245212   6.559   8.149   6.617  1.2437  0.2926  1.3796
 6097TIP3   OH245213   4.637   1.078   1.280  0.5661  0.5214 -0.1543
 6097TIP3    H145214   4.706   1.119   1.331  0.4109 -0.6494  1.0427
 6097TIP3    H245215   4.557   1.091   1.331  0.5500 -1.4215  0.4135
 6098TIP3   OH245216   0.864   1.936   5.851  0.2352  1.0116  0.2857
 6098TIP3    H145217   0.918   1.919   5.928  0.5494 -0.7477 -0.2641
 6098TIP3    H245218   0.925   1.970   5.786  0.5374 -0.1197 -0.0449
 6099TIP3   OH245219   4.797   5.323   6.132 -0.1081  0.0687 -0.9694
 6099TIP3    H145220   4.705   5.343   6.150  0.3240 -0.5432  2.6424
 6099TIP3    H245221   4.840   5.408   6.128 -0.4748  0.2981 -0.2057
 6100TIP3   OH245222   3.465   1.963   0.329  0.2444 -0.1472 -0.2686
 6100TIP3    H145223   3.558   1.950   0.312  0.2865  0.1486 -0.2690
 6100TIP3    H245224   3.460   1.979   0.423  0.3178  0.8845 -0.4275
 6101TIP3   OH245225   3.465   7.050   1.269 -0.7591  0.1042  0.4987
 6101TIP3    H145226   3.372   7.073   1.280 -0.2960  1.3537  2.4758
 6101TIP3    H245227   3.498   7.114   1.207 -1.3885 -1.0005 -1.0522
 6102TIP3   OH245228   6.875   2.739   6.298 -0.6030  0.0904 -0.2824
 6102TIP3    H145229   6.944   2.673   6.288  0.7827  1.2615  0.9538
 6102TIP3    H245230   6.794   2.691   6.281  0.3253 -1.9366  0.5839
 6103TIP3   OH245231   4.954   1.687   0.813  0.2025  0.0530 -0.2612
 6103TIP3    H145232   4.980   1.775   0.839  1.7410  0.0452 -1.5588
 6103TIP3    H245233   5.031   1.633   0.832  0.6399 -0.3086 -2.7326
 6104TIP3   OH245234   2.263   2.913   0.588 -0.3186 -0.1947  0.0068
 6104TIP3    H145235   2.277   2.988   0.646 -0.5148  0.8217 -1.2257
 6104TIP3    H245236   2.350   2.874   0.579  0.3402  1.4528 -1.3909
 6105TIP3   OH245237   2.129   5.759   1.627  0.0737  0.6892  0.5241
 6105TIP3    H145238   2.070   5.688   1.651  0.1369  0.3364 -0.3089
 6105TIP3    H245239   2.215   5.717   1.620 -0.3979  0.0055 -3.3914
 6106TIP3   OH245240   2.620   8.032   5.435  0.0668 -0.3185  0.1148
 6106TIP3    H145241   2.651   7.942   5.436  1.5944  0.1330 -1.3211
 6106TIP3    H245242   2.662   8.073   5.510 -1.1157 -0.9267  1.1294
 6107TIP3   OH245243   2.461   1.501   1.068 -0.2119  0.2640  0.3323
 6107TIP3    H145244   2.491   1.577   1.018  0.3370  0.5115  1.0237
 6107TIP3    H245245   2.451   1.533   1.158 -1.2205 -0.1696  0.3855
 6108TIP3   OH245246   6.846   0.249   0.273 -0.3419 -0.4994  0.7051
 6108TIP3    H145247   6.838   0.154   0.281  0.5603 -0.7419 -0.8103
 6108TIP3    H245248   6.847   0.281   0.363 -1.7171 -1.8089  1.2335
 6109TIP3   OH245249   6.024   7.287   5.890  0.0554 -0.0768  0.3341
 6109TIP3    H145250   5.990   7.262   5.804 -0.2119  2.4576 -0.3738
 6109TIP3    H245251   5.945   7.293   5.945 -0.0384  0.5714  0.1300
 6110TIP3   OH245252   6.853   8.082   6.930 -0.4028 -0.0586 -0.5085
 6110TIP3    H145253   6.846   8.170   6.891  0.1843 -0.1745 -0.8754
 6110TIP3    H245254   6.884   8.098   7.019 -0.2232  0.1016 -0.5983
 6111TIP3   OH245255   2.205   5.325   1.309  0.3883 -0.0099 -0.3072
 6111TIP3    H145256   2.153   5.363   1.380 -0.3508  1.7123 -1.7125
 6111TIP3    H245257   2.295   5.333   1.339  0.0533 -0.0762  0.7757
 6112TIP3   OH245258   3.727   7.072   6.867 -0.5577  0.6032  0.0254
 6112TIP3    H145259   3.702   7.102   6.955 -0.1945  0.0121  0.3323
 6112TIP3    H245260   3.644   7.049   6.825 -0.6436 -0.1429  0.5940
 6113TIP3   OH245261   1.173   6.837   0.079  0.0992  0.1291 -0.0663
 6113TIP3    H145262   1.086   6.820   0.044  0.1302 -0.4698  0.1332
 6113TIP3    H245263   1.161   6.837   0.174  0.2997  0.1522 -0.0395
 6114TIP3   OH245264   5.961   6.457   5.597 -0.0505  0.2655  0.6258
 6114TIP3    H145265   6.005   6.540   5.617  0.5012  0.2608 -0.5000
 6114TIP3    H245266   5.904   6.477   5.523 -0.0582 -0.3227  0.4698
 6115TIP3   OH245267   5.122   3.649   6.662 -0.0149  0.2617 -0.2555
 6115TIP3    H145268   5.102   3.647   6.755 -0.0670  2.3858 -0.1710
 6115TIP3    H245269   5.215   3.631   6.657 -0.2352 -1.0509  0.0838
 6116TIP3   OH245270   6.871   7.629   5.798 -0.4623  0.7428 -0.0968
 6116TIP3    H145271   6.843   7.641   5.889  0.6782 -0.4296  0.4442
 6116TIP3    H245272   6.829   7.549   5.770  0.2431  0.3779 -0.1437
 6117TIP3   OH245273   6.526   6.077   6.250 -0.3947  0.2259  0.5569
 6117TIP3    H145274   6.608   6.035   6.223 -2.1796 -2.0496 -1.7594
 6117TIP3    H245275   6.544   6.171   6.241  1.8298 -0.2065 -0.2955
 6118TIP3   OH245276   6.448   0.485   0.438 -0.1938  0.4121  0.3804
 6118TIP3    H145277   6.393   0.564   0.436 -0.5191  0.2064 -2.0010
 6118TIP3    H245278   6.426   0.440   0.356  2.4447 -0.4532  0.0852
 6119TIP3   OH245279   7.757   0.147   5.714  0.7004 -0.2079  0.3004
 6119TIP3    H145280   7.797   0.212   5.656  0.8979 -0.0689  0.5858
 6119TIP3    H245281   7.780   0.063   5.675  0.0739 -0.1067 -0.3151
 6120TIP3   OH245282   3.910   8.489   1.104  0.3058  0.0301 -0.0914
 6120TIP3    H145283   4.000   8.522   1.100 -0.3614  1.8475 -1.4556
 6120TIP3    H245284   3.897   8.445   1.020 -0.3695  0.6656 -0.3320
 6121TIP3   OH245285   7.369   1.099   6.199  0.5737 -0.3738 -0.2785
 6121TIP3    H145286   7.452   1.053   6.211  1.2800  0.0210 -2.9382
 6121TIP3    H245287   7.302   1.034   6.218  1.4236 -0.6541  2.1124
 6122TIP3   OH245288   5.498   0.020   6.669 -0.1181  0.6766 -0.0779
 6122TIP3    H145289   5.521   0.053   6.582 -0.7005 -1.3211 -1.0494
 6122TIP3    H245290   5.402   0.013   6.667 -0.3175  2.2645  1.3995
 6123TIP3   OH245291   2.325   6.097   5.854  0.1104 -0.0986 -0.0855
 6123TIP3    H145292   2.266   6.110   5.779 -0.2094 -0.9312  0.0099
 6123TIP3    H245293   2.407   6.068   5.814  0.1899  0.2375 -0.1658
 6124TIP3   OH245294   7.601   5.223   5.428 -0.0413  0.1875  0.0560
 6124TIP3    H145295   7.677   5.204   5.373 -0.2597  1.6700 -0.8179
 6124TIP3    H245296   7.546   5.279   5.374 -1.6777 -0.6727  0.7467
 6125TIP3   OH245297   4.910   3.742   6.048 -0.0706 -0.0887  0.4987
 6125TIP3    H145298   5.003   3.763   6.034  0.1460  0.2853  2.2364
 6125TIP3    H245299   4.869   3.758   5.963  1.2070  1.2423  0.0751
 6126TIP3   OH245300   5.132   4.415   6.207  0.1931  0.0235 -0.3232
 6126TIP3    H145301   5.120   4.323   6.231 -0.8373 -0.0419 -1.0488
 6126TIP3    H245302   5.107   4.463   6.286 -1.7908 -0.2472 -0.7382
 6127TIP3   OH245303   3.550   4.737   6.074  0.0451 -1.0218  0.0714
 6127TIP3    H145304   3.611   4.668   6.048  0.5654 -0.2576 -0.7583
 6127TIP3    H245305   3.487   4.742   6.002  0.1251 -0.4898  0.0392
 6128TIP3   OH245306   5.095   0.467   1.157  0.2275  0.1078  0.4212
 6128TIP3    H145307   5.153   0.528   1.203 -0.9764  0.8508  1.0103
 6128TIP3    H245308   5.038   0.433   1.226  0.4104 -1.1411 -0.0314
 6129TIP3   OH245309   7.512   2.119   0.607 -0.0397  0.4503 -0.8053
 6129TIP3    H145310   7.595   2.161   0.629 -0.7293  0.5054  2.0067
 6129TIP3    H245311   7.510   2.039   0.659 -2.3755  1.2466  0.5051
 6130TIP3   OH245312   6.803   2.209   0.034  0.4505 -0.2041  0.1516
 6130TIP3    H145313   6.722   2.247   0.067 -0.2524 -0.3171 -1.3810
 6130TIP3    H245314   6.837   2.275   7.044  1.2162 -0.4084  0.3506
 6131TIP3   OH245315   0.473   6.491   0.970  0.5401 -0.3351 -0.0733
 6131TIP3    H145316   0.462   6.397   0.987  0.9848 -0.3620  0.0584
 6131TIP3    H245317   0.386   6.528   0.986 -0.1146 -0.9832 -1.8856
 6132TIP3   OH245318   6.191   2.658   0.206  0.2206  0.0264  0.1732
 6132TIP3    H145319   6.107   2.678   0.247 -1.0870  1.7212 -2.9662
 6132TIP3    H245320   6.230   2.743   0.187  1.7497 -0.7077 -0.1483
 6133TIP3   OH245321   7.633   1.416   1.323 -0.2824  0.3028 -0.0226
 6133TIP3    H145322   7.600   1.326   1.322  0.0317  0.1708 -1.7888
 6133TIP3    H245323   7.720   1.409   1.363  0.0274 -0.3059 -0.7830
 6134TIP3   OH245324   1.624   7.367   6.693  0.1168 -0.4312  0.9154
 6134TIP3    H145325   1.665   7.425   6.757  0.3083 -0.0853  0.4860
 6134TIP3    H245326   1.566   7.312   6.745  0.4621 -0.3318  1.4207
 6135TIP3   OH245327   8.340   8.289   6.686  0.2053 -0.1561 -0.4113
 6135TIP3    H145328   8.409   8.315   6.625  0.8965 -0.1739  0.3389
 6135TIP3    H245329   8.321   8.368   6.736 -2.0749  0.5221 -2.2210
 6136TIP3   OH245330   5.770   1.074   5.340 -0.4309 -0.2588 -0.1990
 6136TIP3    H145331   5.720   1.141   5.294  0.3953 -0.5375 -1.5408
 6136TIP3    H245332   5.856   1.114   5.355  1.3015 -1.9933 -4.0063
 6137TIP3   OH245333   2.990   0.906   5.925 -0.3152  0.0918  0.1892
 6137TIP3    H145334   3.056   0.914   5.856  0.6691  0.4999  1.1500
 6137TIP3    H245335   2.985   0.993   5.964  1.2820 -0.7596  2.5087
 6138TIP3   OH245336   4.301   1.149   6.163 -0.0449  0.1484 -0.5743
 6138TIP3    H145337   4.312   1.222   6.101 -0.7134  0.2117 -0.6219
 6138TIP3    H245338   4.236   1.180   6.226  0.6093  0.0749  0.1617
 6139TIP3   OH245339   1.144   0.749   5.956  0.4171 -0.3425  0.5735
 6139TIP3    H145340   1.107   0.700   5.883  3.6070 -0.9425 -0.8236
 6139TIP3    H245341   1.168   0.833   5.918  1.6067 -0.4563  1.0399
 6140TIP3   OH245342   2.741   3.192   6.603  0.2210  0.0962  0.0641
 6140TIP3    H145343   2.660   3.200   6.654  0.4352  0.6292  0.3333
 6140TIP3    H245344   2.783   3.278   6.612  0.5600 -0.0047 -0.5102
 6141TIP3   OH245345   7.034   6.366   0.820 -0.0108 -0.2005 -0.2715
 6141TIP3    H145346   6.960   6.415   0.786 -0.1149 -0.1628  0.0036
 6141TIP3    H245347   7.109   6.425   0.810 -0.5821  1.2166  2.6626
 6142TIP3   OH245348   3.064   4.380   0.360  0.2823 -0.2928 -0.1267
 6142TIP3    H145349   3.106   4.455   0.401  0.1270  0.1848 -0.8149
 6142TIP3    H245350   3.010   4.418   0.290 -0.8324 -0.9284  0.3517
 6143TIP3   OH245351   7.553   4.332   0.860 -0.3534 -0.2321  0.6934
 6143TIP3    H145352   7.606   4.330   0.780 -1.1693  0.0799  0.1304
 6143TIP3    H245353   7.582   4.411   0.905 -2.6051  1.8802 -1.2576
 6144TIP3   OH245354   6.043   3.420   1.884 -0.1762 -0.2499  0.0871
 6144TIP3    H145355   5.953   3.450   1.897  0.2559  0.4636  1.6879
 6144TIP3    H245356   6.097   3.486   1.927  1.3604  0.9126 -3.2294
 6145TIP3   OH245357   3.291   6.211   6.058  0.2290  0.0138 -0.0493
 6145TIP3    H145358   3.256   6.270   5.992  0.8455  2.7623  1.9243
 6145TIP3    H245359   3.384   6.233   6.064  1.0529 -2.8087 -0.8006
 6146TIP3   OH245360   0.458   4.240   0.286  0.0612 -0.3436  0.1407
 6146TIP3    H145361   0.417   4.158   0.256  2.1971 -1.4180 -0.0767
 6146TIP3    H245362   0.385   4.294   0.315 -1.4965 -2.0669 -0.3363
 6147TIP3   OH245363   6.346   3.978   5.652 -0.5175  0.2248 -0.0641
 6147TIP3    H145364   6.409   3.907   5.661 -2.7558 -1.8153  0.5048
 6147TIP3    H245365   6.392   4.045   5.601  2.0292 -1.1745  0.2704
 6148TIP3   OH245366   0.028   8.344   1.667 -0.0153  0.3341 -0.1116
 6148TIP3    H145367   8.498   8.363   1.734 -0.5593  1.3531 -0.9005
 6148TIP3    H245368   0.110   8.379   1.703  0.0524 -0.6383  0.7268
 6149TIP3   OH245369   1.380   1.518   6.939  0.5004  0.1206 -0.2122
 6149TIP3    H145370   1.355   1.610   6.933  0.2583  0.0340 -0.5426
 6149TIP3    H245371   1.358   1.481   6.854  1.0824 -0.1268 -0.2617
 6150TIP3   OH245372   2.836   2.143   6.962  0.7621  0.2938  0.3507
 6150TIP3    H145373   2.855   2.160   7.054 -2.3984  0.2003  1.1114
 6150TIP3    H245374   2.776   2.212   6.936  2.0784  0.6983 -1.9085
 6151TIP3   OH245375   2.452   0.989   5.608  0.3660 -0.5496 -0.5715
 6151TIP3    H145376   2.367   0.960   5.575  0.5489 -1.8158  0.0129
 6151TIP3    H245377   2.442   1.084   5.619 -1.4113 -0.8305  0.7362
 6152TIP3   OH245378   2.960   3.414   6.150 -0.4383 -0.3960  0.0434
 6152TIP3    H145379   2.921   3.426   6.063  1.4340 -0.7983 -0.8928
 6152TIP3    H245380   2.898   3.357   6.196 -0.6635 -1.5512 -1.5976
 6153TIP3   OH245381   4.330   2.212   6.451  1.1825  0.1430 -0.0703
 6153TIP3    H145382   4.343   2.166   6.368  2.4012 -0.0137  0.1882
 6153TIP3    H245383   4.298   2.145   6.512 -0.1282  0.3469 -0.4916
 6154TIP3   OH245384   1.558   5.548   5.754  0.2388  0.4201 -0.6117
 6154TIP3    H145385   1.625   5.613   5.772  0.4774 -0.1680  0.7589
 6154TIP3    H245386   1.478   5.583   5.795  0.0399  0.4896 -1.0574
 6155TIP3   OH245387   6.953   2.885   5.575  0.0464  0.1223 -0.5878
 6155TIP3    H145388   7.002   2.903   5.495  2.4456  0.7083  0.8984
 6155TIP3    H245389   6.980   2.954   5.636 -2.8246  0.5714  0.3315
 6156TIP3   OH245390   3.858   6.485   6.927 -0.1834 -0.4283  0.4058
 6156TIP3    H145391   3.928   6.547   6.946 -2.1580  2.0996  0.0594
 6156TIP3    H245392   3.818   6.466   7.012  0.1868 -0.9312  0.4681
 6157TIP3   OH245393   2.332   1.608   0.394 -0.4493 -0.6567  0.1728
 6157TIP3    H145394   2.413   1.649   0.424 -1.5699  0.8670  1.2800
 6157TIP3    H245395   2.279   1.599   0.474 -1.4690 -1.3681 -0.5648
 6158TIP3   OH245396   3.845   3.086   5.315 -0.0830  0.5316  0.1085
 6158TIP3    H145397   3.868   3.011   5.261 -0.4757 -0.1815  0.8998
 6158TIP3    H245398   3.787   3.139   5.260 -0.5436 -0.2179 -0.1349
 6159TIP3   OH245399   6.900   3.239   6.209  0.0461 -0.3613 -0.1548
 6159TIP3    H145400   6.921   3.277   6.295  0.2878 -0.6858 -0.0693
 6159TIP3    H245401   6.939   3.152   6.212  0.9437 -0.0008 -0.9822
 6160TIP3   OH245402   6.818   5.639   5.946  0.1144  0.2855  0.3017
 6160TIP3    H145403   6.871   5.718   5.957  0.4420  0.1213 -0.0830
 6160TIP3    H245404   6.880   5.567   5.953 -0.1965  0.0526  0.7438
 6161TIP3   OH245405   3.076   1.199   6.574 -0.0112 -0.6863  0.0651
 6161TIP3    H145406   3.082   1.104   6.579  1.0158 -0.5550  2.1100
 6161TIP3    H245407   2.984   1.218   6.596 -0.3378 -1.1937 -0.7896
 6162TIP3   OH245408   7.868   2.662   1.229 -0.0247  0.8779 -0.7613
 6162TIP3    H145409   7.949   2.712   1.219  0.5191  0.1075 -0.3309
 6162TIP3    H245410   7.822   2.675   1.146  0.8945  0.7167 -1.3223
 6163TIP3   OH245411   2.212   3.669   1.195 -0.7494 -0.1117 -0.6241
 6163TIP3    H145412   2.245   3.579   1.196  1.8635  0.7364  1.5893
 6163TIP3    H245413   2.191   3.686   1.103 -0.9092 -2.7926 -1.1614
 6164TIP3   OH245414   5.793   7.209   1.497  0.3039  0.5423  0.1752
 6164TIP3    H145415   5.729   7.277   1.477  0.6620  0.3407 -1.8067
 6164TIP3    H245416   5.740   7.130   1.512 -0.0085  0.8627  0.8289
 6165TIP3   OH245417   0.546   4.401   1.488  0.2670 -0.3977  0.1930
 6165TIP3    H145418   0.633   4.437   1.468  0.8525 -1.3214  1.0013
 6165TIP3    H245419   0.485   4.463   1.447  1.3070 -0.1944 -1.1481
 6166TIP3   OH245420   2.130   1.605   5.725  0.4736  0.3078  0.1989
 6166TIP3    H145421   2.189   1.675   5.698 -1.4859  2.4537  1.1065
 6166TIP3    H245422   2.143   1.536   5.660  0.6293  2.5952 -2.3883
 6167TIP3   OH245423   1.754   1.791   0.426  0.6014 -0.7498  0.5021
 6167TIP3    H145424   1.700   1.716   0.451  1.5749 -1.6738 -0.0741
 6167TIP3    H245425   1.696   1.847   0.375 -0.7407 -0.0359  2.6437
 6168TIP3   OH245426   1.230   2.963   5.435  0.2246  0.1817 -0.5913
 6168TIP3    H145427   1.184   3.042   5.465 -1.2725 -0.0891 -2.0315
 6168TIP3    H245428   1.231   2.906   5.512 -1.2512  0.4865 -0.3152
 6169TIP3   OH245429   6.462   6.436   6.241 -0.0008 -0.4038 -0.1173
 6169TIP3    H145430   6.477   6.522   6.280  0.6750 -0.5315 -0.0699
 6169TIP3    H245431   6.382   6.404   6.283  0.9768 -0.7533  1.5666
 6170TIP3   OH245432   3.226   2.852   6.934 -0.0786  0.6442 -0.5972
 6170TIP3    H145433   3.209   2.939   6.897  1.0040  0.7198 -0.9546
 6170TIP3    H245434   3.311   2.860   6.976 -0.7600  0.2336  0.9432
 6171TIP3   OH245435   1.631   3.797   6.910 -0.0182 -0.2840 -0.4476
 6171TIP3    H145436   1.604   3.737   6.841 -1.0110  1.6657 -1.8617
 6171TIP3    H245437   1.598   3.882   6.882  0.8514  0.8540  1.7241
 6172TIP3   OH245438   1.788   1.469   6.739 -0.6828 -0.0712  0.3201
 6172TIP3    H145439   1.759   1.412   6.811 -0.2865  0.6393  1.0709
 6172TIP3    H245440   1.710   1.518   6.714 -0.8209 -0.3110  0.2795
 6173TIP3   OH245441   2.108   2.177   1.449  0.3039  0.7346  0.2703
 6173TIP3    H145442   2.077   2.090   1.422 -0.4561  0.5318  1.7224
 6173TIP3    H245443   2.034   2.235   1.431 -0.8844  0.3301  3.2940
 6174TIP3   OH245444   2.215   0.603   1.294 -0.6581 -0.3280 -0.2344
 6174TIP3    H145445   2.271   0.661   1.346 -1.3916 -0.2010  0.4388
 6174TIP3    H245446   2.171   0.548   1.359  0.7452 -2.3405 -0.9024
 6175TIP3   OH245447   6.269   6.397   0.241  0.1367 -0.1820  0.0968
 6175TIP3    H145448   6.275   6.347   0.322  2.1611  1.3772  1.0003
 6175TIP3    H245449   6.343   6.367   0.188  0.7954  1.1067  0.2512
 6176TIP3   OH245450   6.189   6.768   5.337  0.2736  0.5420 -0.1271
 6176TIP3    H145451   6.164   6.720   5.415 -0.4398 -1.9210 -1.7572
 6176TIP3    H245452   6.172   6.860   5.358  1.1421  0.0927  2.9322
 6177TIP3   OH245453   6.188   1.347   0.029 -0.1893 -0.5986 -0.4783
 6177TIP3    H145454   6.103   1.391   0.023  0.9611  1.8716  0.1731
 6177TIP3    H245455   6.241   1.403   0.085  2.3477 -1.2803 -2.0276
 6178TIP3   OH245456   4.818   3.781   0.606 -0.9763  0.0769  0.5771
 6178TIP3    H145457   4.825   3.830   0.689 -1.3420 -0.4536  0.9260
 6178TIP3    H245458   4.763   3.706   0.627 -1.0991 -0.0482 -0.1616
 6179TIP3   OH245459   3.074   5.394   6.670  0.3406 -0.5761 -0.3483
 6179TIP3    H145460   3.089   5.482   6.706  1.7047  0.3739 -2.9412
 6179TIP3    H245461   3.161   5.360   6.652 -0.0498 -3.4030  2.4048
 6180TIP3   OH245462   6.671   5.232   6.968  0.0427  0.1415  0.7281
 6180TIP3    H145463   6.594   5.175   6.972  1.3463 -1.8578 -0.6502
 6180TIP3    H245464   6.676   5.271   7.056 -1.6984 -0.7891  1.2956
 6181TIP3   OH245465   6.742   0.032   4.849  0.2354 -0.2371 -0.4106
 6181TIP3    H145466   6.649   0.018   4.831 -1.0541  3.7645  1.8888
 6181TIP3    H245467   6.776   0.067   4.767 -0.8700  0.3785 -0.6332
 6182TIP3   OH245468   8.277   6.480   0.993 -0.0815  1.2749 -0.5452
 6182TIP3    H145469   8.342   6.418   0.960 -1.3008  0.1414 -0.8534
 6182TIP3    H245470   8.305   6.564   0.956  0.1958  0.5066 -2.2029
 6183TIP3   OH245471   4.424   7.084   0.464  0.5169 -0.0904 -0.2230
 6183TIP3    H145472   4.361   7.146   0.502  1.2400 -0.0853  1.0184
 6183TIP3    H245473   4.386   6.998   0.481 -0.3475 -0.0408 -1.6952
 6184TIP3   OH245474   1.700   3.346   0.642  0.5964  0.4509 -0.0050
 6184TIP3    H145475   1.778   3.391   0.672 -0.2766  1.7530  0.3915
 6184TIP3    H245476   1.733   3.271   0.591  2.0722  0.5266  0.7996
 6185TIP3   OH245477   6.944   2.031   6.796 -0.4643 -0.4364  0.3397
 6185TIP3    H145478   7.039   2.020   6.785 -0.3166 -0.3018  1.3179
 6185TIP3    H245479   6.906   2.000   6.714  0.3613 -1.5415  0.3454
 6186TIP3   OH245480   4.962   7.849   1.522 -0.3399 -0.4802 -0.6285
 6186TIP3    H145481   5.027   7.856   1.592 -0.4722 -0.9480 -0.4521
 6186TIP3    H245482   4.904   7.923   1.534  2.2451  2.2042 -2.9897
 6187TIP3   OH245483   0.521   0.736   6.383 -0.2978 -0.1748 -0.6170
 6187TIP3    H145484   0.503   0.813   6.438 -0.6071 -0.7471  0.1002
 6187TIP3    H245485   0.610   0.750   6.351  0.5796 -0.6344  1.4400
 6188TIP3   OH245486   0.202   6.615   1.591 -0.4083  0.2523 -0.1873
 6188TIP3    H145487   0.261   6.655   1.655  0.9709  1.0090 -1.8436
 6188TIP3    H245488   0.127   6.674   1.588  0.5848  1.5550 -0.9364
 6189TIP3   OH245489   3.059   5.499   5.995 -0.9824  0.0145  0.0255
 6189TIP3    H145490   3.132   5.542   5.951 -2.3320 -0.5370 -2.9846
 6189TIP3    H245491   3.001   5.570   6.021 -0.3188  0.3238  0.7259
 6190TIP3   OH245492   3.034   4.948   6.340 -0.3696 -0.4437  0.0448
 6190TIP3    H145493   3.104   4.936   6.276  0.1594 -1.2507  0.7372
 6190TIP3    H245494   3.054   5.032   6.382  0.0578 -0.5606  0.0799
 6191TIP3   OH245495   3.312   3.726   4.868  0.0225 -0.3149  0.1920
 6191TIP3    H145496   3.243   3.774   4.914  0.0368  0.2732 -0.3740
 6191TIP3    H245497   3.317   3.769   4.782  1.5416  0.0836  0.4491
 6192TIP3   OH245498   5.957   5.056   0.150 -1.5640 -0.7189 -0.5646
 6192TIP3    H145499   6.045   5.019   0.145 -0.3959  1.4085  1.9003
 6192TIP3    H245500   5.932   5.069   0.059 -0.4416 -3.6506 -1.4257
 6193TIP3   OH245501   4.540   1.437   6.005  0.2967  0.1621 -0.1705
 6193TIP3    H145502   4.453   1.466   6.032  1.0403  1.2568  1.2169
 6193TIP3    H245503   4.539   1.444   5.910 -1.1660  0.0525 -0.1868
 6194TIP3   OH245504   2.758   8.085   5.687  0.0514 -0.4389 -0.0080
 6194TIP3    H145505   2.749   8.166   5.737 -0.7026 -1.4107  1.4805
 6194TIP3    H245506   2.833   8.040   5.726  1.3789  0.1594 -1.7630
 6195TIP3   OH245507   0.076   7.683   0.174  0.7834 -0.6489 -0.1329
 6195TIP3    H145508   0.109   7.757   0.122 -1.7974  0.3750 -0.4959
 6195TIP3    H245509   8.525   7.664   0.136 -0.8618 -0.4387  3.0985
 6196TIP3   OH245510   5.372   7.956   6.046  0.1459 -0.3015 -0.8441
 6196TIP3    H145511   5.395   8.013   6.120  0.8404  0.9418 -1.9703
 6196TIP3    H245512   5.277   7.962   6.039 -0.1499 -1.8550  1.0198
 6197TIP3   OH245513   3.862   4.118   6.461 -0.0092  0.3570  0.1103
 6197TIP3    H145514   3.778   4.101   6.503 -0.1981 -0.7028 -0.6333
 6197TIP3    H245515   3.855   4.208   6.428 -0.5572  0.5422  0.7228
 6198TIP3   OH245516   4.716   6.336   5.307  0.4218  0.0881 -0.0810
 6198TIP3    H145517   4.630   6.295   5.302  1.2443 -1.6551 -0.7197
 6198TIP3    H245518   4.709   6.415   5.254 -1.7806  1.9971  2.7584
 6199TIP3   OH245519   3.713   1.379   5.642 -0.1428 -0.0172 -0.1426
 6199TIP3    H145520   3.744   1.447   5.702 -0.0085 -0.7047  0.5800
 6199TIP3    H245521   3.622   1.403   5.624 -0.1040  0.3431  0.1296
 6200TIP3   OH245522   1.669   6.671   6.077  0.3620  0.7000  0.0009
 6200TIP3    H145523   1.573   6.665   6.076  0.3242  1.2194 -1.0665
 6200TIP3    H245524   1.686   6.765   6.066  0.9965  0.5914  0.0475
 6201TIP3   OH245525   4.710   4.675   5.477  0.0126  0.3989 -0.2194
 6201TIP3    H145526   4.650   4.645   5.546  0.2705 -1.8913 -0.8956
 6201TIP3    H245527   4.727   4.767   5.498  0.4689 -0.3155  3.0499
 6202TIP3   OH245528   6.419   7.858   5.208 -0.0961 -0.4498  0.0072
 6202TIP3    H145529   6.343   7.818   5.250  0.7845  0.1381  2.2953
 6202TIP3    H245530   6.399   7.951   5.204  0.3574 -0.3386  0.2921
 6203TIP3   OH245531   0.792   8.286   0.254 -0.3427 -0.3214  0.0137
 6203TIP3    H145532   0.846   8.331   0.319 -1.4409 -0.6027  1.1579
 6203TIP3    H245533   0.852   8.268   0.182  0.4836  1.6499  0.1397
 6204TIP3   OH245534   7.252   6.427   6.751 -0.4780  0.8336  0.5219
 6204TIP3    H145535   7.249   6.522   6.739  0.7826  0.8287 -0.0814
 6204TIP3    H245536   7.167   6.404   6.786 -2.0910  1.7742 -2.4298
 6205TIP3   OH245537   5.467   6.354   1.052 -0.5847 -0.1212  0.3783
 6205TIP3    H145538   5.414   6.426   1.018 -0.9596 -0.2580  0.6705
 6205TIP3    H245539   5.407   6.304   1.107 -0.9128 -1.8366 -1.4214
 6206TIP3   OH245540   6.591   2.013   6.397 -0.2354 -0.2756  0.3657
 6206TIP3    H145541   6.594   1.968   6.482  0.3570  0.8887  0.9981
 6206TIP3    H245542   6.653   2.085   6.407 -0.2928 -0.0135 -1.0128
 6207TIP3   OH245543   7.849   0.400   7.032 -0.3983  0.7749 -0.1059
 6207TIP3    H145544   7.915   0.468   7.014  0.2811 -0.4536 -2.8592
 6207TIP3    H245545   7.899   0.324   7.059 -0.8829  0.4882 -0.0022
 6208TIP3   OH245546   7.902   6.634   0.646  0.1300  0.0578 -0.3772
 6208TIP3    H145547   7.998   6.634   0.651  0.1354 -1.3079 -0.2658
 6208TIP3    H245548   7.882   6.612   0.555 -0.0763 -1.0398 -0.0723
 6209TIP3   OH245549   5.320   2.969   0.634 -0.3733  0.0093 -0.0389
 6209TIP3    H145550   5.398   2.930   0.673 -0.5205  0.6443  0.9388
 6209TIP3    H245551   5.260   2.895   0.621  0.3503 -0.4673 -0.7226
 6210TIP3   OH245552   0.544   1.744   1.684 -0.3615  0.2674  0.4671
 6210TIP3    H145553   0.507   1.754   1.771  1.8329  1.4319  1.3475
 6210TIP3    H245554   0.570   1.833   1.658  2.3712 -0.4785  0.2722
 6211TIP3   OH245555   3.041   3.411   5.613 -0.2661 -0.0803  0.7970
 6211TIP3    H145556   2.988   3.335   5.589 -0.3150  0.3443 -0.5467
 6211TIP3    H245557   3.125   3.375   5.641 -0.9675 -0.7192  2.1974
 6212TIP3   OH245558   6.617   1.951   0.353  0.1795 -0.0266  1.1982
 6212TIP3    H145559   6.588   1.951   0.262 -0.3216  1.1572  1.3374
 6212TIP3    H245560   6.661   1.867   0.365 -0.5375 -0.5714  0.1201
 6213TIP3   OH245561   6.992   7.226   1.941  0.5007  0.3549  0.2032
 6213TIP3    H145562   6.978   7.177   1.860 -1.9659 -2.3915  2.0497
 6213TIP3    H245563   6.905   7.257   1.966  0.8211 -0.4361  2.6330
 6214TIP3   OH245564   6.836   6.161   1.153 -0.0553 -0.7634  0.5817
 6214TIP3    H145565   6.810   6.214   1.229  0.8287 -2.1428  1.9100
 6214TIP3    H245566   6.755   6.147   1.104 -1.0290 -1.3477  2.2749
 6215TIP3   OH245567   4.590   1.922   0.602  0.3670 -0.4483 -0.1178
 6215TIP3    H145568   4.518   1.890   0.547  1.5176 -2.9652 -0.2995
 6215TIP3    H245569   4.668   1.882   0.565  1.3422 -1.2926  2.6170
 6216TIP3   OH245570   8.459   3.148   0.938  0.4410  0.1220  0.4286
 6216TIP3    H145571   8.379   3.102   0.963 -0.8337  1.2081 -1.4234
 6216TIP3    H245572   8.498   3.175   1.021 -0.7424 -1.0052  1.3957
 6217TIP3   OH245573   2.353   6.845   1.777  0.3238  0.8602  0.1947
 6217TIP3    H145574   2.419   6.809   1.837 -0.1916  0.7400  0.6956
 6217TIP3    H245575   2.384   6.822   1.690  1.9093  2.3568  0.3046
 6218TIP3   OH245576   5.847   5.944   0.522  0.0868  0.2386 -0.0140
 6218TIP3    H145577   5.861   6.008   0.452 -0.6130  1.2439  0.7372
 6218TIP3    H245578   5.781   5.884   0.487  2.0271 -1.2353 -1.4290
 6219TIP3   OH245579   1.271   1.993   0.249 -0.0413 -0.1035  0.4004
 6219TIP3    H145580   1.206   1.929   0.276  0.2510  0.0297  1.4746
 6219TIP3    H245581   1.244   2.020   0.161 -0.4502 -1.3106  0.1429
 6220TIP3   OH245582   7.977   7.519   0.357  0.4325 -0.0145  0.0779
 6220TIP3    H145583   7.946   7.607   0.379 -1.0219 -0.4924  0.0437
 6220TIP3    H245584   7.944   7.504   0.269 -0.9323 -1.2772  0.7640
 6221TIP3   OH245585   7.562   5.221   0.004 -0.0157 -0.1511  0.3364
 6221TIP3    H145586   7.645   5.173   0.005 -0.3980 -0.9953 -2.0188
 6221TIP3    H245587   7.587   5.311   7.052  0.2069 -0.6527 -1.5385
 6222TIP3   OH245588   7.463   7.416   6.252 -0.0719  0.0056 -0.5992
 6222TIP3    H145589   7.505   7.442   6.170 -1.1003  1.3438 -0.7271
 6222TIP3    H245590   7.501   7.474   6.318  2.3502 -2.4175  0.3833
 6223TIP3   OH245591   0.658   5.210   6.110 -0.7232 -0.4162 -0.1840
 6223TIP3    H145592   0.676   5.129   6.063  0.7477 -0.7791  0.9176
 6223TIP3    H245593   0.744   5.241   6.139 -1.3320  1.1231  0.0950
 6224TIP3   OH245594   3.037   6.803   6.201  0.7742 -0.1798  0.2422
 6224TIP3    H145595   3.071   6.714   6.211 -0.3965 -0.7323 -0.4468
 6224TIP3    H245596   2.943   6.795   6.216  0.4000  0.6335 -1.4019
 6225TIP3   OH245597   3.487   6.312   6.517 -0.4598  0.2560 -0.2545
 6225TIP3    H145598   3.569   6.332   6.563 -1.1648  1.6273  0.4606
 6225TIP3    H245599   3.504   6.336   6.426  0.3754 -0.8433 -0.4219
 6226TIP3   OH245600   4.852   3.425   6.635  0.0793  0.6990  0.0492
 6226TIP3    H145601   4.919   3.381   6.582 -1.0275  1.1225 -1.8179
 6226TIP3    H245602   4.886   3.423   6.724  2.0414 -0.0845 -0.6608
 6227TIP3   OH245603   3.055   1.935   0.477  0.2909  0.0350  0.4492
 6227TIP3    H145604   3.029   1.853   0.521 -0.1946 -0.6452 -1.0507
 6227TIP3    H245605   3.061   1.999   0.549  1.1699 -1.4087  1.7235
 6228TIP3   OH245606   3.290   7.263   6.084  0.1445 -0.0748 -0.5093
 6228TIP3    H145607   3.380   7.268   6.117  0.5313 -0.0664 -1.5310
 6228TIP3    H245608   3.267   7.171   6.090  0.4629 -0.1795 -0.8546
 6229TIP3   OH245609   1.115   6.371   5.817 -0.5428  0.0728  0.1146
 6229TIP3    H145610   1.074   6.290   5.846 -4.4905  1.4039 -1.1363
 6229TIP3    H245611   1.090   6.436   5.882 -0.4044  0.9603 -0.6956
 6230TIP3   OH245612   2.572   3.150   0.129  0.3107  0.2427  0.2704
 6230TIP3    H145613   2.622   3.230   0.145  1.1359  0.7729 -3.7838
 6230TIP3    H245614   2.623   3.103   0.062 -0.8997 -3.0108  1.4432
 6231TIP3   OH245615   8.474   6.138   6.163 -0.1206  0.7184  0.7272
 6231TIP3    H145616   0.033   6.132   6.181 -0.2838 -1.6827  1.0213
 6231TIP3    H245617   8.460   6.084   6.085 -1.3550  0.4461  1.1151
 6232TIP3   OH245618   5.349   0.712   5.277  0.6780 -0.5223 -0.0572
 6232TIP3    H145619   5.339   0.693   5.370  0.0971  1.4092  0.3171
 6232TIP3    H245620   5.415   0.780   5.273 -1.1867  1.3602 -0.7702
 6233TIP3   OH245621   6.894   2.558   0.262 -0.4807 -0.4304 -0.4234
 6233TIP3    H145622   6.934   2.491   0.318  0.2104 -0.6122 -1.1106
 6233TIP3    H245623   6.891   2.517   0.176 -1.8144 -0.2693 -0.4664
 6234TIP3   OH245624   7.219   0.758   5.949  0.4719 -0.3865  0.0909
 6234TIP3    H145625   7.259   0.680   5.987  0.3573 -1.5645 -2.0886
 6234TIP3    H245626   7.149   0.725   5.893 -0.6119  1.3910  0.3017
 6235TIP3   OH245627   1.701   3.168   6.277 -0.2373 -0.2684  0.1830
 6235TIP3    H145628   1.741   3.201   6.196  0.9912 -0.1046  0.8303
 6235TIP3    H245629   1.775   3.151   6.335 -1.0108 -1.7148  0.7921
 6236TIP3   OH245630   7.448   8.417   5.694 -0.0381 -0.1984 -0.5154
 6236TIP3    H145631   7.467   8.342   5.637  1.4060 -0.0255 -0.2957
 6236TIP3    H245632   7.523   8.422   5.753 -0.9392  0.3739  0.6164
 6237TIP3   OH245633   0.871   6.756   0.807  0.2793 -0.2453  0.2131
 6237TIP3    H145634   0.893   6.666   0.780  1.0776  0.0104 -0.0354
 6237TIP3    H245635   0.955   6.793   0.836 -0.1114  0.3046  0.6678
 6238TIP3   OH245636   0.027   2.219   6.647 -0.2795 -0.2005  0.2473
 6238TIP3    H145637   8.510   2.291   6.612  0.3413 -0.4385 -1.2214
 6238TIP3    H245638   0.097   2.206   6.583 -0.3270 -2.0533  0.5052
 6239TIP3   OH245639   7.861   7.560   0.099  0.2844 -0.3689  0.2477
 6239TIP3    H145640   7.774   7.583   0.066  0.0562  0.1504  1.1576
 6239TIP3    H245641   7.917   7.633   0.072 -0.0258  0.3494  1.4544
 6240TIP3   OH245642   2.638   0.276   0.506 -0.0741  0.2211 -0.3138
 6240TIP3    H145643   2.703   0.266   0.437 -1.0720 -0.6257 -1.1483
 6240TIP3    H245644   2.623   0.371   0.511  1.6540  0.4976  0.3342
 6241TIP3   OH245645   3.231   8.005   0.596  0.9739 -0.2939 -0.4216
 6241TIP3    H145646   3.174   8.047   0.661 -0.2542  0.3290 -1.8263
 6241TIP3    H245647   3.288   7.948   0.647 -0.4307 -0.3852  1.1402
 6242TIP3   OH245648   5.776   4.929   5.828  0.1700 -0.3413  0.2037
 6242TIP3    H145649   5.785   4.834   5.830 -3.4096 -0.8801 -1.3651
 6242TIP3    H245650   5.839   4.958   5.762  1.7650 -1.5150  1.1715
 6243TIP3   OH245651   0.543   1.143   0.918  0.1390 -0.8925 -0.0485
 6243TIP3    H145652   0.632   1.116   0.897  0.2764 -1.4563  1.1705
 6243TIP3    H245653   0.508   1.176   0.835  0.6208 -3.0159 -1.1727
 6244TIP3   OH245654   8.357   1.794   0.059 -0.1851 -0.1336  0.9754
 6244TIP3    H145655   8.355   1.885   0.030  0.6905 -0.4151 -0.0134
 6244TIP3    H245656   8.267   1.776   0.086 -0.6225  0.6808  0.1221
 6245TIP3   OH245657   2.001   2.357   1.094  0.1956 -0.5635 -0.1361
 6245TIP3    H145658   2.095   2.352   1.078  0.1091 -1.7216 -0.3938
 6245TIP3    H245659   1.962   2.353   1.006 -0.0893 -0.1084 -0.0306
 6246TIP3   OH245660   5.974   0.923   6.664  0.0263 -0.0484  0.0661
 6246TIP3    H145661   6.024   0.997   6.700  0.9040 -0.9270  0.7117
 6246TIP3    H245662   5.883   0.950   6.672  0.3489  1.8468 -1.6534
 6247TIP3   OH245663   5.755   6.512   0.881 -0.3337  0.3192  0.1753
 6247TIP3    H145664   5.696   6.439   0.900 -1.3069  1.1327  0.4104
 6247TIP3    H245665   5.787   6.495   0.792 -0.5509 -0.3830  0.2261
 6248TIP3   OH245666   0.008   2.479   6.175 -0.0489 -0.0608 -0.2317
 6248TIP3    H145667   8.520   2.561   6.132 -2.1422 -0.4295  0.0436
 6248TIP3    H245668   0.020   2.502   6.267 -0.6789 -0.0495 -0.1476
 6249TIP3   OH245669   3.779   5.708   5.803 -0.4219 -0.4130  0.0926
 6249TIP3    H145670   3.689   5.732   5.785 -0.4981  0.3944  1.3631
 6249TIP3    H245671   3.791   5.623   5.762 -0.7711  0.8553 -2.8820
 6250TIP3   OH245672   5.983   2.491   5.405 -0.2210  0.8144  0.0486
 6250TIP3    H145673   5.914   2.475   5.470  0.5068  1.0705  0.9139
 6250TIP3    H245674   6.049   2.423   5.422 -0.9139 -0.3996 -1.7779
 6251TIP3   OH245675   6.603   0.233   1.881  0.3021 -0.1501  0.6639
 6251TIP3    H145676   6.607   0.189   1.966 -0.0491 -0.0897  0.7145
 6251TIP3    H245677   6.528   0.193   1.837  0.6129 -0.3324  0.2944
 6252TIP3   OH245678   3.251   2.206   5.800  0.4223 -0.5822  0.5681
 6252TIP3    H145679   3.305   2.268   5.750  0.6344 -1.4409 -0.3071
 6252TIP3    H245680   3.182   2.180   5.739 -0.2960 -0.3948  1.2896
 6253TIP3   OH245681   0.040   3.538   1.448  0.5646  0.2737  0.0496
 6253TIP3    H145682   0.019   3.445   1.438 -1.5637  0.6717  0.1864
 6253TIP3    H245683   8.532   3.564   1.529  0.4784  1.5366 -0.3655
 6254TIP3   OH245684   6.096   5.495   1.947  0.2592  0.1415  0.8501
 6254TIP3    H145685   6.146   5.509   2.027 -1.0704 -0.0859  1.7482
 6254TIP3    H245686   6.034   5.567   1.944  0.1146 -0.0039  0.1603
 6255TIP3   OH245687   4.574   4.136   6.154 -0.2137  0.2502  0.7124
 6255TIP3    H145688   4.659   4.140   6.198  0.0761 -1.1080  0.3184
 6255TIP3    H245689   4.519   4.198   6.203  0.5611  0.0129  1.9384
 6256TIP3   OH245690   1.619   4.278   0.267  0.5091  0.0644 -0.3336
 6256TIP3    H145691   1.655   4.313   0.186  0.4246 -0.0926 -0.4397
 6256TIP3    H245692   1.586   4.191   0.243  0.4988  0.0108 -0.1285
 6257TIP3   OH245693   6.841   3.821   5.450  0.3819  0.6205 -0.7063
 6257TIP3    H145694   6.857   3.824   5.545 -1.7716  0.1413 -0.2734
 6257TIP3    H245695   6.852   3.912   5.421 -0.0976  1.0006  0.2415
 6258TIP3   OH245696   3.327   3.644   0.927 -0.2742 -0.2265 -0.5012
 6258TIP3    H145697   3.238   3.657   0.960  0.2517  0.0276  0.9100
 6258TIP3    H245698   3.358   3.733   0.908  0.0595 -0.2018  0.1182
 6259TIP3   OH245699   3.220   0.184   0.192  0.1122  0.3652 -0.4691
 6259TIP3    H145700   3.126   0.179   0.212 -0.1528  0.1350 -1.6973
 6259TIP3    H245701   3.256   0.101   0.223 -0.0742  0.4606  0.0211
 6260TIP3   OH245702   2.527   1.960   5.539 -0.5359  0.8625  0.1902
 6260TIP3    H145703   2.433   1.965   5.525 -1.0737 -2.1034  1.8362
 6260TIP3    H245704   2.537   1.909   5.620  2.4809  1.1047  0.1010
 6261TIP3   OH245705   6.438   4.379   1.181 -0.1434  0.2441  0.1901
 6261TIP3    H145706   6.501   4.355   1.249  2.3391 -0.9760 -2.2908
 6261TIP3    H245707   6.466   4.466   1.152  0.1973 -0.1314 -0.6535
 6262TIP3   OH245708   1.450   8.188   5.348  0.5422 -0.0264 -0.1711
 6262TIP3    H145709   1.434   8.173   5.441 -1.3726 -0.9757 -0.5964
 6262TIP3    H245710   1.371   8.155   5.305  1.8696 -0.6988 -2.2268
 6263TIP3   OH245711   6.369   2.198   0.215 -0.6497  0.4754 -0.1879
 6263TIP3    H145712   6.329   2.112   0.224  1.3637 -0.6597 -1.2479
 6263TIP3    H245713   6.361   2.218   0.122  1.1656  0.1681 -0.4631
 6264TIP3   OH245714   7.730   2.559   1.620  0.0710 -0.5168  0.1135
 6264TIP3    H145715   7.642   2.524   1.632  0.0139 -0.3680  0.1360
 6264TIP3    H245716   7.785   2.483   1.602 -0.0615 -0.6098  0.1074
 6265TIP3   OH245717   5.859   3.370   6.867  0.0015  0.5103 -0.2963
 6265TIP3    H145718   5.882   3.451   6.914  1.7712 -0.3152  0.3185
 6265TIP3    H245719   5.840   3.307   6.936 -0.9402  0.2548 -0.7727
 6266TIP3   OH245720   2.616   2.360   6.598 -0.3952  0.7041  0.8320
 6266TIP3    H145721   2.681   2.392   6.535  0.8728 -1.2369  1.0925
 6266TIP3    H245722   2.633   2.266   6.605 -1.4458  0.6140  2.9953
 6267TIP3   OH245723   4.792   2.450   0.565 -0.1446  0.5429  0.7292
 6267TIP3    H145724   4.790   2.357   0.542 -2.3761  0.7080 -0.0746
 6267TIP3    H245725   4.761   2.453   0.655  0.0583  0.4921  0.8001
 6268TIP3   OH245726   2.739   5.459   6.371 -0.3022 -0.1894  0.1425
 6268TIP3    H145727   2.831   5.437   6.358 -0.1701  1.1678 -1.6203
 6268TIP3    H245728   2.725   5.452   6.466  2.5102  2.8330  0.9455
 6269TIP3   OH245729   6.500   0.255   5.948 -0.0646  0.3286 -0.0504
 6269TIP3    H145730   6.433   0.306   5.994  0.4162 -0.2417  1.3666
 6269TIP3    H245731   6.450   0.191   5.897 -0.6286  0.0738  0.7870
 6270TIP3   OH245732   6.716   6.756   0.678  0.5066 -0.1080 -0.4595
 6270TIP3    H145733   6.713   6.695   0.752 -2.9045  0.4709  0.0231
 6270TIP3    H245734   6.809   6.777   0.668  1.2018 -0.9439  3.0260
 6271TIP3   OH245735   5.953   0.645   5.944  0.1840  0.0059 -0.5110
 6271TIP3    H145736   5.888   0.582   5.915  0.1123 -0.8279  1.3236
 6271TIP3    H245737   6.028   0.630   5.887 -0.8850  0.4052 -2.0945
 6272TIP3   OH245738   7.343   8.523   6.941  0.4537 -0.0200 -0.0867
 6272TIP3    H145739   7.334   0.080   6.919  0.4726 -0.1990 -0.8783
 6272TIP3    H245740   7.265   8.482   6.906 -0.8826  0.0549  2.5284
 6273TIP3   OH245741   2.060   3.777   0.517  0.2860  0.5568 -0.3739
 6273TIP3    H145742   1.985   3.741   0.565  0.8820  0.9046  0.8820
 6273TIP3    H245743   2.097   3.843   0.577  2.9405 -1.1714  0.0463
 6274TIP3   OH245744   6.235   1.343   5.787  0.6335 -0.2227  0.3365
 6274TIP3    H145745   6.231   1.410   5.719  1.9665 -0.8082 -0.3603
 6274TIP3    H245746   6.169   1.279   5.762  0.6255 -0.0809 -0.0084
 6275TIP3   OH245747   4.573   8.347   5.156  0.4050 -0.0547 -0.2905
 6275TIP3    H145748   4.524   8.409   5.102  0.8324  0.8914  0.3757
 6275TIP3    H245749   4.664   8.356   5.127  0.5527  0.0477  0.1876
 6276TIP3   OH245750   0.234   8.115   6.681 -0.4283 -0.9490 -0.2849
 6276TIP3    H145751   0.174   8.132   6.608 -0.9675  2.1781  0.7264
 6276TIP3    H245752   0.312   8.165   6.660 -0.2310 -0.7749  0.8169
 6277TIP3   OH245753   3.121   1.889   1.370  0.7205  0.0737 -0.0863
 6277TIP3    H145754   3.148   1.923   1.456  1.1987 -1.5956  0.4483
 6277TIP3    H245755   3.026   1.879   1.378  0.9665 -1.8287  0.9416
 6278TIP3   OH245756   6.872   6.408   5.950  0.2044 -0.0956 -0.0534
 6278TIP3    H145757   6.907   6.319   5.942  1.4470  0.3404  0.3853
 6278TIP3    H245758   6.816   6.404   6.028 -0.3205 -0.6550 -0.4457
 6279TIP3   OH245759   7.160   5.393   6.762 -0.4215 -0.4680  0.0065
 6279TIP3    H145760   7.201   5.307   6.748  0.7678 -0.0778  0.9164
 6279TIP3    H245761   7.218   5.437   6.824 -0.4003  1.4307 -1.2954
 6280TIP3   OH245762   5.371   3.095   1.486 -0.0151  0.6232 -0.1468
 6280TIP3    H145763   5.403   3.136   1.567  0.2200 -0.8285  0.5228
 6280TIP3    H245764   5.400   3.004   1.492 -0.3103  0.3949 -1.7111
 6281TIP3   OH245765   0.479   5.163   1.116 -0.3248  0.3328  0.0896
 6281TIP3    H145766   0.411   5.108   1.157 -0.4021 -0.4830 -1.0752
 6281TIP3    H245767   0.549   5.167   1.181 -0.6663 -0.4777  0.5272
 6282TIP3   OH245768   1.725   8.180   0.703  0.3271 -0.3381  0.1035
 6282TIP3    H145769   1.690   8.153   0.618  0.8807  1.4345 -0.7233
 6282TIP3    H245770   1.728   8.099   0.754 -0.7473 -1.3052 -1.2886
 6283TIP3   OH245771   2.298   7.535   0.692  0.0070  0.0878  0.6760
 6283TIP3    H145772   2.251   7.613   0.662  1.7796  0.8735 -0.1908
 6283TIP3    H245773   2.328   7.493   0.612 -0.0463 -0.9454  1.1810
 6284TIP3   OH245774   5.835   7.632   5.714  0.3922  0.0770  0.4183
 6284TIP3    H145775   5.851   7.663   5.625 -2.1262  1.1470  0.2393
 6284TIP3    H245776   5.888   7.689   5.770  1.0975  0.1484 -0.3124
 6285TIP3   OH245777   7.379   7.411   5.588  0.5022  0.4470 -0.0120
 6285TIP3    H145778   7.463   7.367   5.577 -0.1026 -0.5616 -0.7293
 6285TIP3    H245779   7.378   7.436   5.680  1.6724  0.6699 -0.0394
 6286TIP3   OH245780   4.065   0.314   6.838 -0.6336 -0.0757  0.0282
 6286TIP3    H145781   4.133   0.262   6.881 -0.2385  0.6066  0.2311
 6286TIP3    H245782   4.090   0.315   6.745 -0.6456 -0.2479  0.0227
 6287TIP3   OH245783   3.992   6.472   6.652 -0.4519 -0.4858  0.4131
 6287TIP3    H145784   4.070   6.526   6.662  0.7373 -2.3669  1.9572
 6287TIP3    H245785   3.949   6.476   6.738 -1.3457 -0.5357 -0.0205
 6288TIP3   OH245786   2.625   5.033   4.681 -0.7508 -0.6230 -0.1553
 6288TIP3    H145787   2.572   4.976   4.736 -0.6228 -1.8941 -1.3086
 6288TIP3    H245788   2.622   5.118   4.726 -1.6127 -1.3064  1.1655
 6289TIP3   OH245789   5.101   3.273   5.898 -0.5868 -0.5454 -0.4392
 6289TIP3    H145790   5.086   3.362   5.866 -0.1461  0.0098  0.8139
 6289TIP3    H245791   5.190   3.252   5.867 -0.6751 -0.5361 -0.7027
 6290TIP3   OH245792   3.949   1.450   1.001  0.3571  0.1346  0.3864
 6290TIP3    H145793   3.900   1.402   0.934  0.7894 -0.5880  0.5771
 6290TIP3    H245794   3.891   1.452   1.077  1.5795 -3.1669  1.5931
 6291TIP3   OH245795   7.375   5.499   6.921  0.5975 -0.5877  0.2877
 6291TIP3    H145796   7.315   5.500   6.996  0.8706  2.7044  0.6244
 6291TIP3    H245797   7.462   5.492   6.960  0.6355 -0.9580  0.1335
 6292TIP3   OH245798   6.286   7.803   4.827 -0.0617 -0.1650 -0.1949
 6292TIP3    H145799   6.242   7.822   4.910  0.0671 -1.1244  0.1055
 6292TIP3    H245800   6.378   7.794   4.850 -0.0142 -0.3513 -0.4563
 6293TIP3   OH245801   6.624   0.707   0.663  0.3825 -0.1776 -0.5589
 6293TIP3    H145802   6.678   0.631   0.682 -1.2503 -1.3706 -0.4247
 6293TIP3    H245803   6.536   0.681   0.691 -0.2340  1.7595 -0.5304
 6294TIP3   OH245804   1.535   4.939   5.783  0.0060 -0.1711 -0.1953
 6294TIP3    H145805   1.552   4.928   5.689  0.3187 -1.9038  0.0270
 6294TIP3    H245806   1.531   5.034   5.795 -2.0287  0.1002 -2.2927
 6295TIP3   OH245807   4.801   6.914   1.710 -0.3786 -0.0478  0.1555
 6295TIP3    H145808   4.784   6.961   1.629  0.4796  0.8597  0.4860
 6295TIP3    H245809   4.777   6.976   1.779 -1.7166 -1.0266  0.6294
 6296TIP3   OH245810   5.133   8.436   5.715 -0.6389 -0.2332  0.5795
 6296TIP3    H145811   5.086   8.484   5.647  1.4339  0.8789 -0.1462
 6296TIP3    H245812   5.091   8.462   5.797 -3.6585 -2.1357 -0.1864
 6297TIP3   OH245813   7.358   7.416   5.893  0.1478  0.0069 -1.1494
 6297TIP3    H145814   7.313   7.484   5.943 -0.3692 -1.0969 -0.0854
 6297TIP3    H245815   7.444   7.410   5.934  0.9201  1.3235 -2.4673
 6298TIP3   OH245816   7.982   1.022   5.906  0.4907 -0.1521 -0.0730
 6298TIP3    H145817   8.058   1.064   5.866 -0.1680  2.3982  1.1867
 6298TIP3    H245818   7.913   1.030   5.840  0.9227 -1.2998 -0.6967
 6299TIP3   OH245819   6.524   3.970   5.965 -0.2645 -0.4122  0.3312
 6299TIP3    H145820   6.533   4.065   5.960 -1.0937 -0.3302  0.1687
 6299TIP3    H245821   6.562   3.937   5.884  0.9118 -0.3044  0.8186
 6300TIP3   OH245822   6.235   1.095   5.512 -0.1950 -0.1630 -0.8649
 6300TIP3    H145823   6.179   1.096   5.590  1.8982  0.1944  0.7256
 6300TIP3    H245824   6.175   1.106   5.439 -2.1136  0.8928  0.7902
 6301TIP3   OH245825   8.514   5.090   6.733 -0.5559 -0.0667 -0.0512
 6301TIP3    H145826   8.505   4.998   6.709 -0.4471 -1.4438  4.2922
 6301TIP3    H245827   8.426   5.126   6.724 -0.9889 -1.0957 -0.0974
 6302TIP3   OH245828   5.643   8.331   0.095 -0.2923  0.4204  0.6849
 6302TIP3    H145829   5.617   8.333   0.187 -0.6051 -0.1015  0.6116
 6302TIP3    H245830   5.729   8.372   0.094  0.4254 -0.9728  1.4623
 6303TIP3   OH245831   4.765   4.204   5.654  0.2607  0.2404  0.1839
 6303TIP3    H145832   4.683   4.222   5.700  0.1823 -1.6283  0.8758
 6303TIP3    H245833   4.825   4.173   5.722  1.4419  1.2206 -0.3750
 6304TIP3   OH245834   8.494   0.428   6.481  0.3409 -0.2163  0.1241
 6304TIP3    H145835   8.437   0.432   6.405 -1.6666 -1.9322  1.4210
 6304TIP3    H245836   0.026   0.364   6.459 -0.1857 -0.6451 -0.2444
 6305TIP3   OH245837   6.736   3.952   0.555 -0.5332  0.1356 -0.1849
 6305TIP3    H145838   6.786   4.001   0.621  0.1191 -0.6295 -0.0969
 6305TIP3    H245839   6.662   3.916   0.604 -0.5216  0.2755 -0.0617
 6306TIP3   OH245840   2.100   1.018   5.944  0.3290 -0.2650  0.6269
 6306TIP3    H145841   2.098   1.085   6.013  0.4332  0.5227 -0.1214
 6306TIP3    H245842   2.131   1.064   5.866 -1.2272 -0.7655 -0.3470
 6307TIP3   OH245843   0.409   5.025   6.363 -0.5914  0.1368  0.1935
 6307TIP3    H145844   0.503   5.011   6.375 -0.9891 -1.4372  1.7885
 6307TIP3    H245845   0.402   5.118   6.341  1.2143  0.6765  1.6628
 6308TIP3   OH245846   1.074   0.498   0.576 -0.1364 -0.1281 -0.0776
 6308TIP3    H145847   1.103   0.408   0.591  0.0096 -0.1820 -0.6691
 6308TIP3    H245848   1.122   0.550   0.641 -0.6326 -0.5417  0.6343
 6309TIP3   OH245849   7.758   0.742   6.452  0.2716  0.3350  0.1872
 6309TIP3    H145850   7.846   0.781   6.452 -0.1824  1.3881 -0.1037
 6309TIP3    H245851   7.715   0.779   6.529 -0.2378  0.5603 -0.2043
 6310TIP3   OH245852   4.717   1.924   5.588 -0.7040 -0.0892  0.5410
 6310TIP3    H145853   4.753   1.836   5.598  0.3157  0.2207 -0.2067
 6310TIP3    H245854   4.627   1.917   5.619 -0.4488 -1.2447  1.0719
 6311TIP3   OH245855   1.018   4.917   1.870  0.1067 -0.4207  0.5008
 6311TIP3    H145856   1.041   4.840   1.818  0.3097 -0.6136  0.8733
 6311TIP3    H245857   1.098   4.970   1.872 -0.1856  0.0708 -0.2081
 6312TIP3   OH245858   7.321   2.016   4.922 -0.0665 -0.1059 -0.1199
 6312TIP3    H145859   7.277   2.095   4.953 -0.2430 -0.5400  0.7706
 6312TIP3    H245860   7.404   2.047   4.886  0.2810  0.3914  1.0827
 6313TIP3   OH245861   5.027   3.351   0.245  0.2948 -0.0066 -0.6213
 6313TIP3    H145862   5.032   3.439   0.283 -0.4913  0.0690 -0.6756
 6313TIP3    H245863   4.983   3.299   0.313 -1.1105  0.1245 -1.4063
 6314TIP3   OH245864   0.781   0.680   1.830 -0.6955 -0.2555 -0.1582
 6314TIP3    H145865   0.776   0.590   1.861 -2.1970 -0.3098 -0.4681
 6314TIP3    H245866   0.725   0.730   1.890 -1.2876  0.1425 -1.0063
 6315TIP3   OH245867   8.308   2.062   6.615  0.2297  0.2412  0.3927
 6315TIP3    H145868   8.385   2.119   6.616  0.2967  0.1454  0.9008
 6315TIP3    H245869   8.296   2.038   6.523 -0.6674  2.2708 -0.0791
 6316TIP3   OH245870   3.434   6.964   5.116 -0.4695 -0.7118  0.0716
 6316TIP3    H145871   3.501   6.940   5.180 -0.8499 -1.2520  0.2723
 6316TIP3    H245872   3.400   7.048   5.148  0.2299 -0.3370 -0.1338
 6317TIP3   OH245873   7.666   4.483   6.490  0.0210 -0.1124 -0.2677
 6317TIP3    H145874   7.680   4.453   6.580  1.7469 -2.0932 -1.1355
 6317TIP3    H245875   7.688   4.408   6.435 -1.1587  0.9890 -2.3756
 6318TIP3   OH245876   1.548   4.804   0.980  0.6232  0.9401  0.4862
 6318TIP3    H145877   1.637   4.792   0.947  1.4457 -0.3905  2.9684
 6318TIP3    H245878   1.514   4.878   0.929  2.0363 -0.3542 -2.6053
 6319TIP3   OH245879   5.892   4.377   6.762  0.5050  0.3555  0.6670
 6319TIP3    H145880   5.908   4.289   6.730  1.8875  0.6361  0.5099
 6319TIP3    H245881   5.970   4.426   6.737 -0.8635  2.0122 -0.6101
 6320TIP3   OH245882   1.964   5.255   0.310 -0.3281 -0.3328  0.3255
 6320TIP3    H145883   1.933   5.186   0.250 -0.0266  0.8857 -1.3176
 6320TIP3    H245884   1.924   5.335   0.277  1.0587  0.6125  0.8433
 6321TIP3   OH245885   0.817   0.277   0.665 -0.2845  0.2876  0.2384
 6321TIP3    H145886   0.780   0.310   0.747 -3.6378  0.5879 -1.1944
 6321TIP3    H245887   0.784   0.338   0.598  1.4607 -0.5304 -1.4612
 6322TIP3   OH245888   3.203   4.612   1.238  0.1658  0.4088 -0.1316
 6322TIP3    H145889   3.205   4.707   1.252  2.7801  0.3202  0.4687
 6322TIP3    H245890   3.276   4.578   1.289  0.2644 -1.7758 -1.5963
 6323TIP3   OH245891   0.094   4.325   0.983  0.7751  0.5105 -0.0141
 6323TIP3    H145892   0.072   4.378   1.060 -1.6870  0.1662 -0.3856
 6323TIP3    H245893   0.118   4.388   0.916  0.0374  1.0251  0.1961
 6324TIP3   OH245894   3.596   0.817   5.814  0.2502  0.1650 -0.8102
 6324TIP3    H145895   3.534   0.814   5.741  0.3624 -3.0334 -0.9434
 6324TIP3    H245896   3.674   0.772   5.780  0.3554 -1.2740  1.1673
 6325TIP3   OH245897   7.385   8.509   0.973  0.4164 -0.0697  0.0240
 6325TIP3    H145898   7.302   0.022   0.975 -0.8373 -2.1325  0.0588
 6325TIP3    H245899   7.404   8.497   0.880 -0.5956 -1.5924 -0.0241
 6326TIP3   OH245900   2.751   1.483   6.901 -0.1643  0.2087  0.0251
 6326TIP3    H145901   2.733   1.539   6.976  0.9426  1.7920 -0.8332
 6326TIP3    H245902   2.748   1.394   6.936 -0.5552  0.8587  1.7399
 6327TIP3   OH245903   1.497   4.484   0.871  0.5838  0.0944  0.4630
 6327TIP3    H145904   1.514   4.558   0.813 -0.3646 -0.4564 -0.5648
 6327TIP3    H245905   1.403   4.466   0.860  0.8095 -1.3090  0.5975
 6328TIP3   OH245906   7.284   1.176   1.020  0.1549 -0.7089 -0.1181
 6328TIP3    H145907   7.333   1.258   1.014 -0.0176 -0.3928  1.8868
 6328TIP3    H245908   7.345   1.109   0.992  0.8630 -0.0544 -0.1809
 6329TIP3   OH245909   8.060   4.965   0.966  0.2741  0.6192  0.2924
 6329TIP3    H145910   8.109   4.927   0.894 -2.5017 -0.0677 -1.3777
 6329TIP3    H245911   8.028   4.891   1.016 -1.6617  0.8404 -0.5340
 6330TIP3   OH245912   0.584   4.426   0.571  0.3541 -0.5143  0.3095
 6330TIP3    H145913   0.614   4.427   0.662 -0.7487 -1.4729  0.7053
 6330TIP3    H245914   0.614   4.342   0.537  0.5759 -0.2504 -0.1455
 6331TIP3   OH245915   6.895   7.178   6.710  0.1579  0.3470 -0.0762
 6331TIP3    H145916   6.907   7.085   6.691  0.5201  0.4933 -0.5726
 6331TIP3    H245917   6.924   7.188   6.801 -0.4576 -0.1330  0.1785
 6332TIP3   OH245918   4.527   4.491   0.826  0.2175  0.6978 -0.1976
 6332TIP3    H145919   4.573   4.574   0.819  1.2880  0.1148 -0.3215
 6332TIP3    H245920   4.440   4.507   0.789  0.4624  1.7128 -0.3405
 6333TIP3   OH245921   7.558   3.922   0.972  0.4514  0.1318 -0.5775
 6333TIP3    H145922   7.615   3.866   1.025  1.2580  0.4091 -1.1221
 6333TIP3    H245923   7.473   3.918   1.015  1.1725  0.6511  0.9829
 6334TIP3   OH245924   4.404   3.975   6.021 -0.3141  0.0640  0.0026
 6334TIP3    H145925   4.454   4.042   6.067  0.7756 -0.5444 -0.2630
 6334TIP3    H245926   4.458   3.952   5.945 -1.3831 -0.0288 -0.7543
 6335TIP3   OH245927   0.615   0.973   1.194 -0.2289 -0.6578  0.1139
 6335TIP3    H145928   0.682   0.944   1.256  1.0758  0.0377 -0.9222
 6335TIP3    H245929   0.612   0.903   1.128  0.2929 -0.1796 -0.4309
 6336TIP3   OH245930   8.445   2.573   1.370 -0.3371 -0.4510  0.2397
 6336TIP3    H145931   8.364   2.575   1.320 -0.2164  1.2139  0.0600
 6336TIP3    H245932   8.418   2.564   1.461 -0.6445 -1.3923  0.0621
 6337TIP3   OH245933   5.784   1.016   6.168  0.4924  0.0664  0.0766
 6337TIP3    H145934   5.803   1.109   6.180  0.6761 -0.0821  0.9995
 6337TIP3    H245935   5.762   0.985   6.255  2.5205 -1.2399  0.1794
 6338TIP3   OH245936   5.013   1.297   5.286  0.1006  0.0200  0.0884
 6338TIP3    H145937   5.006   1.202   5.298  0.0713 -0.6855 -3.9168
 6338TIP3    H245938   4.923   1.324   5.267  0.4130  0.3814 -0.9572
 6339TIP3   OH245939   0.106   2.235   6.369 -0.1402 -0.3320  0.4136
 6339TIP3    H145940   0.133   2.318   6.329 -1.6214 -0.7129 -1.5520
 6339TIP3    H245941   0.184   2.180   6.365  0.3092  0.3222 -0.0902
 6340TIP3   OH245942   3.565   3.193   1.514 -0.0564  0.4356 -0.0366
 6340TIP3    H145943   3.537   3.283   1.524  0.9553  0.6310  1.2603
 6340TIP3    H245944   3.508   3.142   1.571  1.2563  0.6651  1.5539
 6341TIP3   OH245945   4.049   4.738   5.497 -0.3498  0.7652 -0.0692
 6341TIP3    H145946   4.129   4.770   5.456 -0.6738 -0.1479 -1.4627
 6341TIP3    H245947   3.978   4.779   5.447 -0.7558 -0.8781 -0.9048
 6342TIP3   OH245948   3.607   3.809   6.722 -0.2296 -0.8362 -0.6409
 6342TIP3    H145949   3.623   3.903   6.716  1.4546 -1.1232 -1.0444
 6342TIP3    H245950   3.596   3.792   6.815  0.5152 -0.3823 -0.4618
 6343TIP3   OH245951   5.870   6.916   0.460  0.2818  0.5131  0.4098
 6343TIP3    H145952   5.802   6.957   0.407  1.9033 -0.7002 -2.8854
 6343TIP3    H245953   5.948   6.970   0.445  0.1484  2.1687  4.4802
 6344TIP3   OH245954   4.778   2.610   1.756 -0.1638 -0.4143 -0.0582
 6344TIP3    H145955   4.774   2.520   1.725  0.4125 -0.3162 -0.4492
 6344TIP3    H245956   4.866   2.619   1.793 -0.7885 -0.4859  1.5193
 6345TIP3   OH245957   6.864   7.218   0.803 -0.2335 -0.1533  0.1403
 6345TIP3    H145958   6.939   7.162   0.783  0.4488  1.4668 -2.2443
 6345TIP3    H245959   6.798   7.193   0.738 -0.6078  0.5114  0.2601
 6346TIP3   OH245960   6.546   7.487   5.418  0.3538  0.0759  0.1752
 6346TIP3    H145961   6.569   7.496   5.325  0.4497  0.7927  0.2617
 6346TIP3    H245962   6.488   7.410   5.421  2.0336 -1.2637 -0.1572
 6347TIP3   OH245963   1.300   1.923   6.477  0.0036 -0.1033 -0.7099
 6347TIP3    H145964   1.371   1.968   6.430 -0.9643  0.9680 -1.1868
 6347TIP3    H245965   1.292   1.839   6.433  0.9040 -0.1873 -0.7252
 6348TIP3   OH245966   1.942   7.928   6.230 -0.1904 -0.6480 -0.0720
 6348TIP3    H145967   1.957   7.954   6.139 -0.9445 -1.3730 -0.4180
 6348TIP3    H245968   2.016   7.965   6.278  1.9700 -2.9072 -1.4563
 6349TIP3   OH245969   3.303   8.249   0.494 -0.1002  0.3315  0.0035
 6349TIP3    H145970   3.351   8.291   0.565  0.1238 -1.5177  1.0178
 6349TIP3    H245971   3.282   8.162   0.528 -1.3873 -0.0419 -1.6217
 6350TIP3   OH245972   8.351   7.051   2.132  0.2731 -0.2422  0.0990
 6350TIP3    H145973   8.315   6.987   2.072 -2.5064  0.4333  0.9016
 6350TIP3    H245974   8.394   6.999   2.200  1.1271 -1.0753 -1.0301
 6351TIP3   OH245975   4.923   2.306   6.024 -0.5495  0.3077  0.7793
 6351TIP3    H145976   4.995   2.257   5.986 -1.6722 -1.7031  1.1388
 6351TIP3    H245977   4.963   2.388   6.054  1.3206 -0.2366 -0.0917
 6352TIP3   OH245978   6.159   8.165   0.449  0.7259 -0.1336 -0.6307
 6352TIP3    H145979   6.206   8.233   0.498  1.0809 -0.2195 -0.8516
 6352TIP3    H245980   6.226   8.103   0.422  0.4206 -0.5151 -0.5383
 6353TIP3   OH245981   5.295   6.654   0.242 -0.6213  0.0403 -0.6639
 6353TIP3    H145982   5.365   6.620   0.297 -1.4992 -2.1735 -0.8052
 6353TIP3    H245983   5.221   6.667   0.302 -1.1645 -1.0818 -1.0651
 6354TIP3   OH245984   0.613   4.532   6.031 -0.3184 -0.0566 -0.4049
 6354TIP3    H145985   0.706   4.534   6.055 -0.7257  3.9182  1.6809
 6354TIP3    H245986   0.610   4.569   5.943 -0.0041  2.2636  0.4975
 6355TIP3   OH245987   7.390   3.384   5.050 -0.1945 -0.0315 -0.1124
 6355TIP3    H145988   7.345   3.302   5.074  2.0630 -0.7258  2.1897
 6355TIP3    H245989   7.339   3.452   5.095 -0.3572 -0.5138  0.4545
 6356TIP3   OH245990   2.506   2.923   4.938  0.2777 -0.1443  0.0858
 6356TIP3    H145991   2.592   2.962   4.950  0.2638  0.6184 -1.8934
 6356TIP3    H245992   2.473   2.908   5.027  0.8167  3.1494  0.9545
 6357TIP3   OH245993   5.249   3.863   1.901  0.1444 -0.2057  0.0959
 6357TIP3    H145994   5.251   3.769   1.886 -2.3965  0.0091 -2.4783
 6357TIP3    H245995   5.284   3.901   1.821  0.1628  1.0527  0.6707
 6358TIP3   OH245996   5.858   0.504   5.588  0.3557  0.2521  0.0412
 6358TIP3    H145997   5.782   0.465   5.630  2.1089 -2.3639  1.0183
 6358TIP3    H245998   5.849   0.482   5.495 -0.7790  1.3092 -0.1285
 6359TIP3   OH245999   2.665   5.004   5.868 -0.3888 -0.1414  0.0765
 6359TIP3    H146000   2.704   4.932   5.917 -0.2195 -1.8740 -2.4802
 6359TIP3    H246001   2.724   5.078   5.885  1.0513 -1.3288  0.5190
 6360TIP3   OH246002   5.806   1.533   6.775 -0.1307 -0.0227 -0.3178
 6360TIP3    H146003   5.777   1.622   6.757 -0.1738 -0.1584 -0.9250
 6360TIP3    H246004   5.735   1.477   6.745  0.7132 -0.3562 -1.7900
 6361TIP3   OH246005   3.528   3.623   6.495  0.2464  0.0477 -0.2138
 6361TIP3    H146006   3.559   3.689   6.557 -0.1894  0.9471 -0.9351
 6361TIP3    H246007   3.476   3.672   6.431  2.9750 -0.3278 -2.9616
 6362TIP3   OH246008   3.628   6.019   1.214  1.0413  0.0711 -0.3218
 6362TIP3    H146009   3.697   6.052   1.272  0.3946  0.7665  0.0726
 6362TIP3    H246010   3.547   6.032   1.264  0.4620  0.7330 -1.4001
 6363TIP3   OH246011   7.789   3.567   7.029  0.2242 -0.3636  0.2033
 6363TIP3    H146012   7.865   3.538   6.979 -0.8159  0.3263 -1.8951
 6363TIP3    H246013   7.715   3.549   6.972 -1.0009  0.7779  1.3646
 6364TIP3   OH246014   6.828   4.995   6.778 -0.4954  0.0601 -0.4535
 6364TIP3    H146015   6.852   5.086   6.795  0.8978 -0.3620  0.0485
 6364TIP3    H246016   6.806   4.960   6.865  0.6338 -0.5071 -0.3811
 6365TIP3   OH246017   5.552   1.395   5.797  0.7986  0.6984  0.0866
 6365TIP3    H146018   5.468   1.350   5.804  0.7286  0.9965  1.7027
 6365TIP3    H246019   5.534   1.484   5.826  1.6061  0.8574  0.1259
 6366TIP3   OH246020   1.275   5.490   5.799  0.1786 -0.3603 -0.3167
 6366TIP3    H146021   1.265   5.425   5.729 -2.6562  0.4076 -0.7780
 6366TIP3    H246022   1.199   5.475   5.856  1.1055  0.6269  1.2320
 6367TIP3   OH246023   0.391   1.414   1.216 -0.8109 -0.1077 -0.2129
 6367TIP3    H146024   0.408   1.320   1.204 -1.6865 -0.4529  1.0446
 6367TIP3    H246025   0.459   1.444   1.275 -1.6356 -0.4004  0.9174
 6368TIP3   OH246026   6.831   4.996   6.402  0.2341 -0.3417 -0.0194
 6368TIP3    H146027   6.872   4.997   6.316  0.2513  0.9407 -0.0049
 6368TIP3    H246028   6.902   4.978   6.463  0.2589 -1.0231 -0.2378
 6369TIP3   OH246029   3.500   2.393   6.449  0.2840 -0.6013  0.0491
 6369TIP3    H146030   3.497   2.424   6.540 -1.0140  0.3159 -0.2802
 6369TIP3    H246031   3.588   2.417   6.418  0.2673  0.2612  0.6537
 6370TIP3   OH246032   4.132   4.080   5.442  0.4070 -0.0263  0.1348
 6370TIP3    H146033   4.064   4.059   5.506  0.6636 -1.9416 -0.1484
 6370TIP3    H246034   4.101   4.040   5.360  2.0175 -1.2932  0.0997
 6371TIP3   OH246035   3.607   8.224   0.524  0.2886 -0.3952  0.8084
 6371TIP3    H146036   3.589   8.269   0.441  1.8267 -1.2124 -0.0145
 6371TIP3    H246037   3.624   8.295   0.586 -0.0526  0.2088  0.2327
 6372TIP3   OH246038   5.346   3.383   5.173  0.4087  0.1696  0.9214
 6372TIP3    H146039   5.409   3.365   5.102 -0.6208 -0.0382  0.0339
 6372TIP3    H246040   5.273   3.323   5.156 -1.4066  2.4549  0.1240
 6373TIP3   OH246041   2.456   0.018   0.971 -0.4526 -0.4417  0.2989
 6373TIP3    H146042   2.528   0.045   0.914 -0.8137  0.1148  0.1032
 6373TIP3    H246043   2.389   8.521   0.911 -0.1422 -1.5384  0.5106
 6374TIP3   OH246044   0.147   1.120   7.053 -0.3266  0.5236 -0.7330
 6374TIP3    H146045   0.192   1.036   7.044  1.3094  1.2523  0.1913
 6374TIP3    H246046   0.125   1.145   6.963  0.4255 -0.2297 -1.1388
 6375TIP3   OH246047   3.735   8.271   0.052 -0.0489 -0.4456 -0.2042
 6375TIP3    H146048   3.685   8.292   0.131  1.6389  1.8142  0.3967
 6375TIP3    H246049   3.826   8.294   0.075  0.9776 -2.5839 -1.8432
 6376TIP3   OH246050   5.187   4.133   6.304  0.3091  0.4949  0.0119
 6376TIP3    H146051   5.123   4.159   6.370 -0.2162  2.5925 -1.2310
 6376TIP3    H246052   5.159   4.045   6.277 -0.6381  0.4199  1.1550
 6377TIP3   OH246053   2.188   6.986   1.929 -0.3965 -0.0777  0.3967
 6377TIP3    H146054   2.183   6.926   2.004 -0.4570  0.2304  0.6412
 6377TIP3    H246055   2.237   6.937   1.863 -2.7044 -1.4789 -0.4266
 6378TIP3   OH246056   8.463   0.594   6.692  0.3757  0.3342 -0.5276
 6378TIP3    H146057   8.463   0.536   6.616 -0.1328 -1.8332  1.0349
 6378TIP3    H246058   8.533   0.560   6.748 -0.6080  0.5785  0.8874
 6379TIP3   OH246059   1.377   0.828   6.079  0.4365  0.3715  0.7461
 6379TIP3    H146060   1.283   0.837   6.065  0.5689  0.6059 -0.0347
 6379TIP3    H246061   1.402   0.907   6.125  0.7006  1.6684 -1.4713
 6380TIP3   OH246062   0.429   0.586   5.415 -0.1523  0.2612  0.3444
 6380TIP3    H146063   0.409   0.661   5.358 -0.5795 -0.4998 -0.5448
 6380TIP3    H246064   0.456   0.625   5.498 -0.4788  1.3976 -0.0624
 6381TIP3   OH246065   4.650   3.607   6.560 -0.0634 -0.2290 -0.2930
 6381TIP3    H146066   4.684   3.677   6.616 -0.2376  1.3208 -2.0241
 6381TIP3    H246067   4.719   3.540   6.560  0.9628  0.8053 -0.1047
 6382TIP3   OH246068   1.291   1.158   0.477  0.3806  0.6049  0.4414
 6382TIP3    H146069   1.352   1.121   0.413  1.1453  2.0749  0.2706
 6382TIP3    H246070   1.249   1.082   0.517  1.6049 -0.4205 -0.1480
 6383TIP3   OH246071   4.403   5.633   0.957 -0.2495  0.3987  0.0331
 6383TIP3    H146072   4.322   5.613   1.004 -1.0922  1.9082 -0.6747
 6383TIP3    H246073   4.468   5.573   0.993 -0.8910  1.2766  2.9622
 6384TIP3   OH246074   0.754   5.511   5.900  0.1062  0.2233  0.2973
 6384TIP3    H146075   0.695   5.437   5.915 -1.1767  1.0511 -0.4119
 6384TIP3    H246076   0.715   5.582   5.951  1.6754  0.2904  1.4925
 6385TIP3   OH246077   4.829   3.840   5.800  0.5206 -0.0264 -0.0179
 6385TIP3    H146078   4.762   3.897   5.836  0.8317  2.0641 -2.4558
 6385TIP3    H246079   4.877   3.895   5.738  3.0943 -2.0355  0.0126
 6386TIP3   OH246080   3.242   2.657   6.611  0.4567 -0.5633 -0.6744
 6386TIP3    H146081   3.188   2.578   6.611 -0.7933  0.2173  1.1131
 6386TIP3    H246082   3.325   2.629   6.649 -0.0909 -0.9895  0.2577
 6387TIP3   OH246083   2.142   3.722   6.388  0.4077 -0.8542  0.2887
 6387TIP3    H146084   2.178   3.669   6.459  2.5472 -0.5260 -0.4879
 6387TIP3    H246085   2.218   3.766   6.350 -0.8075 -0.2867 -1.5958
 6388TIP3   OH246086   7.429   6.914   6.777  0.2199 -0.6872 -0.0709
 6388TIP3    H146087   7.410   6.827   6.741 -0.9508 -0.8163  0.8136
 6388TIP3    H246088   7.498   6.949   6.720 -1.8045 -0.7161 -2.7415
 6389TIP3   OH246089   2.024   5.149   5.883  0.6556 -0.2077 -0.2434
 6389TIP3    H146090   1.935   5.183   5.895  0.5305 -0.8543  0.8510
 6389TIP3    H246091   2.058   5.141   5.972  2.4078  1.5330 -0.6984
 6390TIP3   OH246092   0.071   4.318   6.846  0.7240  0.2166 -0.1153
 6390TIP3    H146093   0.029   4.355   6.769  1.3950  0.3994 -0.4085
 6390TIP3    H246094   0.109   4.236   6.816  2.8667  1.2993 -0.5868
 6391TIP3   OH246095   7.003   3.000   6.309 -0.2331  0.0125 -0.5275
 6391TIP3    H146096   6.964   2.915   6.294 -0.4555  0.1837 -0.9123
 6391TIP3    H246097   7.055   2.988   6.389  0.4264 -0.7154 -1.0500
 6392TIP3   OH246098   4.593   2.105   1.628 -0.2189  0.5605 -0.3377
 6392TIP3    H146099   4.580   2.011   1.637  1.7750  0.3679  1.4794
 6392TIP3    H246100   4.599   2.137   1.719  1.7778  1.9590 -0.8874
 6393TIP3   OH246101   0.895   0.206   5.914  0.3696  0.7545 -0.0720
 6393TIP3    H146102   0.904   0.119   5.875 -2.0692  0.2021  0.4793
 6393TIP3    H246103   0.954   0.205   5.989  0.8768 -0.1542 -0.4676
 6394TIP3   OH246104   7.541   1.547   0.324 -0.6635 -0.1712 -0.2509
 6394TIP3    H146105   7.624   1.578   0.289  1.0441  0.5256  3.8315
 6394TIP3    H246106   7.542   1.452   0.308  2.3063 -0.6552  1.9337
 6395TIP3   OH246107   1.738   1.171   5.440  0.3165  0.0743 -0.8359
 6395TIP3    H146108   1.822   1.135   5.411  0.4541 -0.6224  0.3677
 6395TIP3    H246109   1.672   1.120   5.392  0.5280  1.9097 -3.2901
 6396TIP3   OH246110   6.410   7.018   1.516 -0.2976 -0.0544  0.0892
 6396TIP3    H146111   6.345   7.089   1.519  0.6135  0.8828 -1.2760
 6396TIP3    H246112   6.421   6.992   1.608  0.6835  2.8389  0.9051
 6397TIP3   OH246113   1.799   8.030   6.635  0.0351 -0.1018 -0.0584
 6397TIP3    H146114   1.761   8.018   6.548 -0.2099  2.5633 -0.3779
 6397TIP3    H246115   1.848   7.949   6.651 -2.8782 -2.2467 -1.0816
 6398TIP3   OH246116   7.009   0.635   0.943 -0.5236  0.8372 -0.0168
 6398TIP3    H146117   7.065   0.621   1.019 -0.7408  0.4460  0.0697
 6398TIP3    H246118   7.058   0.698   0.889 -0.9427  2.1109  1.0418
 6399TIP3   OH246119   4.549   6.651   0.489  0.3161  0.4664 -0.0414
 6399TIP3    H146120   4.613   6.581   0.475  1.2708  1.0592  1.0559
 6399TIP3    H246121   4.591   6.729   0.453 -0.3225  0.6432 -0.4069
 6400TIP3   OH246122   2.698   2.201   5.256  0.7415 -0.1578  0.0190
 6400TIP3    H146123   2.740   2.270   5.204 -0.8049  0.1420 -0.9173
 6400TIP3    H246124   2.702   2.124   5.200 -0.5244  0.0492 -0.3875
 6401TIP3   OH246125   8.519   6.230   1.240 -0.1526  0.3119  0.8533
 6401TIP3    H146126   0.072   6.259   1.214  0.6841 -1.0121  2.0745
 6401TIP3    H246127   8.528   6.135   1.250 -1.5333  0.2621  1.7642
 6402TIP3   OH246128   2.457   1.585   6.629  0.0797  0.2684 -0.1238
 6402TIP3    H146129   2.528   1.640   6.662  1.2060 -0.7312 -0.7926
 6402TIP3    H246130   2.484   1.496   6.650 -0.5113 -0.1975 -1.2418
 6403TIP3   OH246131   5.841   7.343   5.402 -0.1186  0.3124 -0.0600
 6403TIP3    H146132   5.784   7.368   5.329 -2.0128  0.3171  1.3466
 6403TIP3    H246133   5.828   7.249   5.412  0.8515  0.1389 -0.2786
 6404TIP3   OH246134   1.887   3.577   0.156 -0.4670 -0.0376  0.3505
 6404TIP3    H146135   1.872   3.655   0.209 -1.5126  0.8953 -1.1958
 6404TIP3    H246136   1.871   3.606   0.066  1.9794 -1.3404 -0.6059
 6405TIP3   OH246137   6.476   0.619   1.142 -0.7767  0.7094  0.2665
 6405TIP3    H146138   6.429   0.536   1.134 -0.7192  0.7257 -0.2612
 6405TIP3    H246139   6.449   0.670   1.065  2.5011 -0.5000 -1.8901
 6406TIP3   OH246140   0.803   2.940   6.525  0.8473 -0.2846  0.4041
 6406TIP3    H146141   0.721   2.890   6.520  0.6504  0.0959 -0.2679
 6406TIP3    H246142   0.798   3.001   6.452  1.5135  0.0801  0.6596
 6407TIP3   OH246143   1.208   3.174   6.312  0.2137  1.0706 -0.1076
 6407TIP3    H146144   1.197   3.090   6.268  0.1155  1.3010 -0.5173
 6407TIP3    H246145   1.263   3.153   6.388  1.7318  0.9513 -1.1984
 6408TIP3   OH246146   2.101   5.965   6.379  0.3496 -0.7482  0.5073
 6408TIP3    H146147   2.014   6.000   6.399  0.4195 -0.3606  0.1278
 6408TIP3    H246148   2.083   5.892   6.319  0.3387 -0.2177 -0.1351
 6409TIP3   OH246149   8.105   8.508   6.700 -0.1346 -0.0952 -0.0630
 6409TIP3    H146150   8.018   8.528   6.663  0.0005  0.2144 -0.2164
 6409TIP3    H246151   8.105   8.413   6.709 -0.8519 -0.0250  0.8464
 6410TIP3   OH246152   4.982   8.340   6.303 -0.2794  0.1279  0.4285
 6410TIP3    H146153   4.968   8.433   6.288  1.4456  1.4738  5.5234
 6410TIP3    H246154   4.894   8.302   6.298 -1.0592  1.9686 -1.4965
 6411TIP3   OH246155   1.465   0.161   0.875 -0.3288 -0.5316  0.3462
 6411TIP3    H146156   1.476   0.182   0.783  0.9901 -0.5054  0.4932
 6411TIP3    H246157   1.553   0.164   0.912 -0.4597 -3.0179  1.0869
 6412TIP3   OH246158   3.877   4.790   0.535  0.0783  0.2068  0.1071
 6412TIP3    H146159   3.930   4.800   0.456  0.2698  0.7069  0.2932
 6412TIP3    H246160   3.927   4.836   0.603 -1.0014  1.4667  0.0967
 6413TIP3   OH246161   6.081   6.304   1.158  0.7402  0.1813  0.3499
 6413TIP3    H146162   6.048   6.363   1.225  1.4611 -0.6110  1.4451
 6413TIP3    H246163   6.099   6.360   1.083 -1.3382  0.8937  0.3230
 6414TIP3   OH246164   6.144   0.960   0.384 -0.0052 -0.7552 -0.1281
 6414TIP3    H146165   6.056   0.977   0.352  0.2576  0.0095 -0.4741
 6414TIP3    H246166   6.175   0.886   0.332  0.2570  0.1990 -1.3985
 6415TIP3   OH246167   1.232   4.700   0.031 -0.5158 -0.3765  0.7159
 6415TIP3    H146168   1.240   4.675   7.010 -1.0971  1.8059  0.0132
 6415TIP3    H246169   1.138   4.694   0.050 -0.4984 -0.0744  0.9192
 6416TIP3   OH246170   3.159   5.656   6.397  0.3003 -0.2774 -0.1268
 6416TIP3    H146171   3.115   5.700   6.469  1.6307 -0.7679  1.0301
 6416TIP3    H246172   3.183   5.727   6.336 -0.9979  0.1160 -0.1967
 6417TIP3   OH246173   6.698   0.797   6.218  0.2706  0.0188  0.4776
 6417TIP3    H146174   6.732   0.719   6.174  0.6594  1.2062 -1.4135
 6417TIP3    H246175   6.622   0.766   6.267 -0.3222 -1.3310 -1.2252
 6418TIP3   OH246176   5.773   0.049   6.128  0.4186 -0.1768  0.4034
 6418TIP3    H146177   5.833   0.122   6.114 -1.0593  0.8396 -1.2249
 6418TIP3    H246178   5.702   0.065   6.065 -1.3738 -1.4890  1.9789
 6419TIP3   OH246179   8.534   6.140   6.855  0.1576 -0.1635  0.6801
 6419TIP3    H146180   0.004   6.146   6.759 -1.0510 -0.8597  0.5439
 6419TIP3    H246181   0.062   6.204   6.887  0.2160  0.4419 -0.5865
 6420TIP3   OH246182   5.780   6.383   0.377 -0.6195 -0.0104  0.7560
 6420TIP3    H146183   5.789   6.478   0.378 -1.4188  0.0994  2.8637
 6420TIP3    H246184   5.728   6.363   0.455 -0.4393 -2.1788  0.3820
 6421TIP3   OH246185   4.440   5.475   7.001 -0.7372 -0.1772 -0.2468
 6421TIP3    H146186   4.359   5.427   6.988 -1.9075  1.3567  1.0134
 6421TIP3    H246187   4.432   5.513   0.018  1.3770 -0.0437 -0.0493
 6422TIP3   OH246188   8.418   7.735   6.139 -0.0935  0.0061 -0.2702
 6422TIP3    H146189   8.452   7.678   6.069  1.6954  0.8116 -0.0996
 6422TIP3    H246190   8.490   7.742   6.201 -1.3533  0.0302  1.2516
 6423TIP3   OH246191   5.703   0.511   5.907  0.0452  0.0564  0.2073
 6423TIP3    H146192   5.658   0.485   5.826 -0.5866 -0.7596  0.7963
 6423TIP3    H246193   5.661   0.593   5.932 -1.0469 -0.6211  0.6701
 6424TIP3   OH246194   3.938   6.221   6.828 -0.1225 -0.3683  0.4481
 6424TIP3    H146195   3.930   6.227   6.923  1.4208  0.2496  0.5766
 6424TIP3    H246196   4.031   6.234   6.811 -0.7172  2.5092 -1.3289
 6425TIP3   OH246197   4.926   8.093   4.917  0.0951 -0.1748  0.2004
 6425TIP3    H146198   5.017   8.087   4.888  0.3117  2.2905  0.1300
 6425TIP3    H246199   4.895   8.003   4.917  1.9329 -0.9099 -1.7137
 6426TIP3   OH246200   7.010   4.450   0.135  0.1708 -0.2995 -0.5024
 6426TIP3    H146201   7.059   4.453   0.216  2.3981  1.3651 -1.8038
 6426TIP3    H246202   6.997   4.357   0.118  0.7643 -0.6990  1.1084
 6427TIP3   OH246203   4.972   7.223   6.288  0.5919  0.0148 -0.2837
 6427TIP3    H146204   5.051   7.189   6.331  0.4059 -1.1110 -0.8124
 6427TIP3    H246205   4.921   7.262   6.359  2.2566  2.0888 -0.1164
 6428TIP3   OH246206   7.053   5.494   6.115 -0.2039 -0.1626  0.6144
 6428TIP3    H146207   6.989   5.433   6.152 -1.7253  0.4114 -0.9004
 6428TIP3    H246208   7.042   5.574   6.167 -2.1448  0.5560 -0.7657
 6429TIP3   OH246209   3.372   5.259   1.433  0.2402 -0.6191  0.2494
 6429TIP3    H146210   3.320   5.284   1.509  0.9873  0.8129  0.3361
 6429TIP3    H246211   3.399   5.169   1.451  2.5571  0.4647  2.9988
 6430TIP3   OH246212   6.206   2.461   0.451 -0.4669  0.7770  0.4068
 6430TIP3    H146213   6.257   2.385   0.421  0.7957  1.8813 -0.3788
 6430TIP3    H246214   6.151   2.484   0.376 -1.7655 -0.0621  1.0596
 6431TIP3   OH246215   2.676   7.682   1.397  0.3510  0.1744  0.4232
 6431TIP3    H146216   2.593   7.697   1.442 -0.3151 -1.5664 -0.1504
 6431TIP3    H246217   2.743   7.702   1.463 -0.5479  0.1205  1.3750
 6432TIP3   OH246218   7.719   0.873   1.847 -0.2880 -0.2099 -0.4881
 6432TIP3    H146219   7.755   0.786   1.829 -2.2376 -0.9762 -0.9497
 6432TIP3    H246220   7.779   0.911   1.911  0.9058 -1.6786 -0.6730
 6433TIP3   OH246221   0.552   8.363   0.507 -0.3079  0.0153 -0.6941
 6433TIP3    H146222   0.473   8.414   0.527  0.2561  1.5024 -2.0533
 6433TIP3    H246223   0.623   8.426   0.515  0.5540 -0.8653 -1.2617
 6434TIP3   OH246224   8.489   0.050   0.357  0.1843 -0.3082  0.8917
 6434TIP3    H146225   8.504   0.010   0.271 -0.3465  0.9168  0.2083
 6434TIP3    H246226   8.524   8.521   0.419  1.9266 -0.5879 -0.2932
 6435TIP3   OH246227   1.313   2.567   1.347  0.5037  0.7810 -0.4632
 6435TIP3    H146228   1.240   2.507   1.365  0.8556  0.3925 -0.3160
 6435TIP3    H246229   1.326   2.614   1.430 -0.1192  1.4521 -0.7322
 6436TIP3   OH246230   5.101   8.058   0.084 -0.3023 -0.0638 -0.3075
 6436TIP3    H146231   5.184   8.069   0.130  0.2495  1.0001 -1.4945
 6436TIP3    H246232   5.035   8.090   0.146  0.4976  2.1161 -0.4934
 6437TIP3   OH246233   4.189   7.362   0.863  0.0603  0.0818  1.0234
 6437TIP3    H146234   4.167   7.334   0.952 -1.4504  2.8367  1.6491
 6437TIP3    H246235   4.170   7.456   0.863  2.6786  0.7388 -1.4336
 6438TIP3   OH246236   7.408   0.946   5.057 -0.2048  0.4724 -0.1228
 6438TIP3    H146237   7.386   0.857   5.029 -0.1279  0.6919 -0.9103
 6438TIP3    H246238   7.491   0.965   5.014 -0.5793  1.1913 -0.5456
 6439TIP3   OH246239   7.578   2.544   0.388  0.4596 -0.1834  0.0173
 6439TIP3    H146240   7.518   2.500   0.449  0.2789  1.2090  0.8919
 6439TIP3    H246241   7.556   2.507   0.303 -0.3252 -1.0855  0.5797
 6440TIP3   OH246242   3.955   4.866   0.778 -0.2414 -0.1647 -0.7488
 6440TIP3    H146243   4.020   4.900   0.838  0.3870  0.3834 -1.7136
 6440TIP3    H246244   3.890   4.824   0.834  0.6516 -0.2339  0.2583
 6441TIP3   OH246245   5.607   5.292   6.369  0.1424 -0.0146  0.1242
 6441TIP3    H146246   5.613   5.241   6.288  0.6731 -0.1489  0.2457
 6441TIP3    H246247   5.672   5.362   6.359 -0.6842  0.7354 -0.1050
 6442TIP3   OH246248   4.553   3.434   6.043  0.1791 -0.3708 -0.5594
 6442TIP3    H146249   4.556   3.527   6.024 -1.8246  0.2113  1.5333
 6442TIP3    H246250   4.523   3.393   5.962  2.2424  0.5807 -1.8891
 6443TIP3   OH246251   0.506   7.390   5.939 -0.0860  0.2052  0.2273
 6443TIP3    H146252   0.413   7.376   5.921 -0.1222  0.1243  0.4718
 6443TIP3    H246253   0.551   7.359   5.861 -0.1528 -1.3449  0.7737
 6444TIP3   OH246254   3.820   0.410   6.878  0.2298  0.7374 -0.1339
 6444TIP3    H146255   3.915   0.399   6.887  0.1655 -1.4916 -1.3270
 6444TIP3    H246256   3.799   0.365   6.796 -2.0595 -0.2023  0.8832
 6445TIP3   OH246257   8.095   6.346   6.137 -0.5277  0.2466 -0.4205
 6445TIP3    H146258   8.158   6.274   6.128  0.3153  1.2148 -3.7271
 6445TIP3    H246259   8.010   6.306   6.118 -0.3193 -0.1948 -0.4308
 6446TIP3   OH246260   2.449   7.806   6.758 -0.0907  0.0388  0.2676
 6446TIP3    H146261   2.371   7.861   6.754  0.0232  0.3201  1.5807
 6446TIP3    H246262   2.459   7.784   6.850 -1.1323 -3.7317 -0.3923
 6447TIP3   OH246263   2.460   2.269   0.867 -0.1222 -0.7943 -0.4980
 6447TIP3    H146264   2.512   2.312   0.935 -1.6294 -0.3996  0.4657
 6447TIP3    H246265   2.479   2.317   0.787 -0.4467  0.5832  0.2221
 6448TIP3   OH246266   3.558   3.776   0.310  0.5094  0.4682  0.6427
 6448TIP3    H146267   3.555   3.700   0.252  1.8544 -0.5020  1.7763
 6448TIP3    H246268   3.648   3.808   0.302  0.3161  1.1570  1.1544
 6449TIP3   OH246269   6.241   1.551   0.670 -0.0406  0.5965 -0.4435
 6449TIP3    H146270   6.172   1.615   0.650  1.3933  2.0420 -0.9877
 6449TIP3    H246271   6.317   1.605   0.691  0.6753 -0.9584  1.1211
 6450TIP3   OH246272   6.894   2.471   5.683 -0.1351  0.1611  0.6452
 6450TIP3    H146273   6.949   2.481   5.760  0.1577 -0.7615  0.5797
 6450TIP3    H246274   6.940   2.404   5.630 -0.4324  0.6251 -0.2202
 6451TIP3   OH246275   5.602   5.116   7.071  0.5791  0.0462  0.3164
 6451TIP3    H146276   5.603   5.065   6.989 -1.0118 -0.4817  0.6007
 6451TIP3    H246277   5.691   5.151   0.007  1.0202 -0.7002 -1.1408
 6452TIP3   OH246278   4.457   8.149   0.627  1.1573 -0.1614  0.0517
 6452TIP3    H146279   4.488   8.134   0.537  0.4426  0.2209 -0.2756
 6452TIP3    H246280   4.365   8.173   0.616  0.6952 -1.4166  0.9884
 6453TIP3   OH246281   7.625   4.018   0.496  0.3822 -0.3138 -0.4092
 6453TIP3    H146282   7.626   4.039   0.589 -0.3749  0.2668 -0.5176
 6453TIP3    H246283   7.687   3.946   0.486  1.9673  0.9072  0.2327
 6454TIP3   OH246284   4.995   3.822   1.010  0.4947  0.7208  0.1142
 6454TIP3    H146285   4.993   3.729   0.988 -0.3771  0.6322  0.5316
 6454TIP3    H246286   5.082   3.835   1.049  0.3718 -0.0655  0.6763
 6455TIP3   OH246287   7.357   8.400   6.003 -0.2942 -0.3714  0.0132
 6455TIP3    H146288   7.277   8.351   6.019 -0.6869  0.7235  1.7277
 6455TIP3    H246289   7.332   8.470   5.943 -0.4432 -0.4867 -0.0576
 6456TIP3   OH246290   8.253   2.910   1.414  0.6441  0.3639 -0.4140
 6456TIP3    H146291   8.271   2.992   1.460  0.9947  0.2015 -0.2586
 6456TIP3    H246292   8.180   2.871   1.462  0.3424  0.6812 -0.6103
 6457TIP3   OH246293   5.744   2.775   1.791  0.1982  0.5743  0.4305
 6457TIP3    H146294   5.751   2.858   1.745 -0.2736  0.1197 -0.5092
 6457TIP3    H246295   5.678   2.726   1.741  2.5360 -1.5242 -0.8634
 6458TIP3   OH246296   8.366   4.382   6.649 -0.0815 -0.1663 -0.6941
 6458TIP3    H146297   8.325   4.456   6.693  0.7210 -0.6154  0.8798
 6458TIP3    H246298   8.379   4.411   6.559 -0.0636  1.4815 -0.1828
 6459TIP3   OH246299   7.771   1.677   6.965 -0.9642 -0.1338  0.8570
 6459TIP3    H146300   7.813   1.673   6.879  0.6482  1.7386  1.4816
 6459TIP3    H246301   7.758   1.585   6.989 -0.1008 -0.7271 -0.7546
 6460TIP3   OH246302   7.955   1.775   1.956  0.6414 -0.4992 -0.4860
 6460TIP3    H146303   8.017   1.778   1.883  0.2738  0.2351 -0.7792
 6460TIP3    H246304   8.010   1.773   2.035  1.0383 -0.0990 -0.7489
 6461TIP3   OH246305   5.463   7.416   0.761  0.3278 -0.5088  0.4449
 6461TIP3    H146306   5.410   7.394   0.838  0.0404  0.0421  0.4089
 6461TIP3    H246307   5.547   7.444   0.796  0.9325 -2.2030  0.4775
 6462TIP3   OH246308   0.511   1.214   6.737  0.3872  0.4039 -0.3766
 6462TIP3    H146309   0.568   1.275   6.691  0.5320  0.0738 -0.6344
 6462TIP3    H246310   0.457   1.270   6.793  0.7955  0.7367 -0.3082
 6463TIP3   OH246311   5.253   0.145   1.382  0.0473 -0.0292 -0.0023
 6463TIP3    H146312   5.233   0.093   1.460  0.8290  0.1094  0.2949
 6463TIP3    H246313   5.250   0.236   1.413  2.6383 -0.0227  0.4497
 6464TIP3   OH246314   5.288   0.931   6.436 -0.3555 -0.2399 -0.1890
 6464TIP3    H146315   5.239   0.862   6.391  0.4209 -0.8742 -0.0822
 6464TIP3    H246316   5.286   1.004   6.375 -4.3209  1.0406  1.1314
 6465TIP3   OH246317   4.612   8.382   5.841  0.2034  0.2521  0.4281
 6465TIP3    H146318   4.534   8.360   5.790  0.9871  1.2384 -1.2857
 6465TIP3    H246319   4.597   8.342   5.927 -1.5371 -0.7718 -0.3067
 6466TIP3   OH246320   4.770   5.515   0.184  0.3368  0.3807  0.1883
 6466TIP3    H146321   4.733   5.428   0.202  1.2326  0.0271  0.3539
 6466TIP3    H246322   4.713   5.575   0.231  0.8070 -0.2806  1.6471
 6467TIP3   OH246323   6.361   3.782   0.514 -0.3454  0.0843  0.1198
 6467TIP3    H146324   6.423   3.830   0.458 -0.3853  0.5137  0.4380
 6467TIP3    H246325   6.377   3.690   0.493 -0.3838  0.2375 -0.6245
 6468TIP3   OH246326   7.027   5.392   0.239 -0.5748 -0.5272 -0.1116
 6468TIP3    H146327   6.937   5.412   0.267 -0.1734  0.3105  0.6124
 6468TIP3    H246328   7.039   5.299   0.261 -1.2765 -0.6641 -0.2736
 6469TIP3   OH246329   7.381   6.007   1.162  0.4948 -0.3824 -0.0582
 6469TIP3    H146330   7.367   6.091   1.118 -1.5638  0.7496  2.4453
 6469TIP3    H246331   7.475   6.002   1.176  0.5807  2.0881  0.6567
 6470TIP3   OH246332   1.548   8.110   6.814 -0.2877 -0.2404 -0.7737
 6470TIP3    H146333   1.621   8.085   6.757  0.9881 -1.3358  1.1837
 6470TIP3    H246334   1.524   8.029   6.859 -0.7899  0.6768  0.6959
 6471TIP3   OH246335   4.040   3.451   0.226  0.2931  0.4089  0.4347
 6471TIP3    H146336   4.060   3.497   0.145 -0.3437  0.5883  0.3691
 6471TIP3    H246337   3.998   3.369   0.197 -0.3430  0.6730  0.5800
 6472TIP3   OH246338   7.875   6.531   0.371  0.2914  0.0379  0.4554
 6472TIP3    H146339   7.853   6.584   0.295 -1.2134  0.3541  1.0914
 6472TIP3    H246340   7.901   6.447   0.334  1.5610  0.8017 -0.4990
 6473TIP3   OH246341   3.222   8.375   6.492 -0.1943  0.6238  0.5782
 6473TIP3    H146342   3.280   8.299   6.486  0.6896  1.0030  3.0653
 6473TIP3    H246343   3.202   8.397   6.401  1.4445 -1.1117 -0.2844
 6474TIP3   OH246344   2.714   4.257   0.250 -0.3973 -0.4132 -0.4594
 6474TIP3    H146345   2.792   4.225   0.296  0.6024  0.4843 -1.4535
 6474TIP3    H246346   2.689   4.185   0.192  0.3934 -0.3196 -0.9422
 6475TIP3   OH246347   6.922   4.169   1.266 -0.0339  0.5116  0.0139
 6475TIP3    H146348   6.938   4.076   1.251  0.0599  0.5580 -0.1858
 6475TIP3    H246349   6.895   4.202   1.180 -1.8530  0.3052  0.4635
 6476TIP3   OH246350   7.182   5.285   1.564  0.3246  0.2006  0.3669
 6476TIP3    H146351   7.237   5.215   1.528  0.1732  1.1046 -1.7797
 6476TIP3    H246352   7.098   5.242   1.583  0.5364 -0.3979 -0.0199
 6477TIP3   OH246353   6.064   2.668   5.219  0.1108  0.1211 -0.3659
 6477TIP3    H146354   6.045   2.621   5.301 -1.2285 -1.8402 -1.7064
 6477TIP3    H246355   6.022   2.753   5.230 -0.0364 -0.1040  1.0012
 6478TIP3   OH246356   0.232   5.740   0.827 -0.0806 -0.1949 -0.0592
 6478TIP3    H146357   0.296   5.770   0.763  1.8801 -0.4902  1.6318
 6478TIP3    H246358   0.169   5.689   0.777  0.5409  0.7829 -1.9293
 6479TIP3   OH246359   2.522   1.729   5.243  0.1119 -0.2283  0.0962
 6479TIP3    H146360   2.557   1.751   5.157  0.7854 -0.5253  0.2924
 6479TIP3    H246361   2.469   1.805   5.267  1.8017  0.9012  0.4335
 6480TIP3   OH246362   6.507   5.397   1.095 -0.0483 -0.1200  0.1249
 6480TIP3    H146363   6.488   5.436   1.180  0.5749  1.0335 -0.2477
 6480TIP3    H246364   6.459   5.314   1.095 -1.0828  0.4605  1.0876
 6481TIP3   OH246365   3.002   6.756   0.055  0.3657  0.0090  0.3051
 6481TIP3    H146366   3.080   6.701   0.063  0.3347  0.0479  0.9442
 6481TIP3    H246367   3.028   6.840   0.093  0.0046  0.0118  0.5516
 6482TIP3   OH246368   6.067   3.695   0.941 -0.5568 -0.5193 -0.0044
 6482TIP3    H146369   6.132   3.731   0.881 -1.3651 -1.2054 -1.3172
 6482TIP3    H246370   6.014   3.771   0.967 -1.2992 -0.4518 -1.5703
 6483TIP3   OH246371   5.981   6.827   0.104 -0.5869 -0.0539  0.1185
 6483TIP3    H146372   6.074   6.828   0.129 -0.4977  2.5783 -0.0033
 6483TIP3    H246373   5.959   6.734   0.099  2.4644 -0.8493 -1.4046
 6484TIP3   OH246374   5.460   0.861   6.617 -0.5599  0.1268 -0.0053
 6484TIP3    H146375   5.436   0.771   6.597 -3.4342  0.8797 -0.3970
 6484TIP3    H246376   5.397   0.914   6.568 -0.5545  2.3024  2.1598
 6485TIP3   OH246377   4.514   0.374   1.633  0.0421 -0.0432 -0.0639
 6485TIP3    H146378   4.447   0.306   1.620  0.6583 -1.3533  2.8117
 6485TIP3    H246379   4.465   0.456   1.629 -1.3848 -0.8515 -0.0653
 6486TIP3   OH246380   7.252   3.005   0.441  0.2184 -0.1962 -0.1707
 6486TIP3    H146381   7.262   2.986   0.348 -0.9160 -1.6217 -0.0304
 6486TIP3    H246382   7.298   2.934   0.486 -0.1250 -0.0985  0.3495
 6487TIP3   OH246383   3.392   6.471   4.968 -0.2283  0.2698  0.0501
 6487TIP3    H146384   3.362   6.562   4.979 -0.3604  0.2526 -0.1572
 6487TIP3    H246385   3.428   6.469   4.879  1.2150  0.5186  0.5959
 6488TIP3   OH246386   3.596   4.430   6.213 -0.0838  0.5279 -0.2799
 6488TIP3    H146387   3.567   4.440   6.122  0.2638 -0.8472 -0.5764
 6488TIP3    H246388   3.550   4.352   6.244  0.6438  0.3412  0.3624
 6489TIP3   OH246389   6.109   2.996   0.059  0.1076  0.3272 -0.7331
 6489TIP3    H146390   6.189   3.029   0.018  1.2910 -0.7259  0.6178
 6489TIP3    H246391   6.088   2.916   0.011  1.2983 -0.7171  0.3854
 6490TIP3   OH246392   7.650   1.883   5.306 -0.4425  0.1183 -0.1359
 6490TIP3    H146393   7.740   1.906   5.282 -0.6981  0.3679 -0.9061
 6490TIP3    H246394   7.601   1.892   5.224 -0.6788 -2.6409 -0.4040
 6491TIP3   OH246395   3.478   1.956   6.607  0.4259  0.5499 -0.3588
 6491TIP3    H146396   3.572   1.973   6.605  0.5381 -0.0666 -0.6464
 6491TIP3    H246397   3.445   1.995   6.526  0.2685  1.6553  0.2268
 6492TIP3   OH246398   6.031   3.900   0.024  0.0141  0.3244  0.5649
 6492TIP3    H146399   5.953   3.927   0.072 -0.0972 -0.4211  0.8171
 6492TIP3    H246400   6.017   3.807   0.006 -0.6800  0.8815 -2.3052
 6493TIP3   OH246401   2.205   0.357   0.347  0.9146 -0.7361  0.6807
 6493TIP3    H146402   2.201   0.369   0.252  0.0108 -0.9581  0.6857
 6493TIP3    H246403   2.277   0.414   0.375 -0.5761  1.4832  0.2001
 6494TIP3   OH246404   1.203   6.875   6.568  0.5030  0.3792 -0.7378
 6494TIP3    H146405   1.244   6.876   6.482 -1.2649  1.1936 -1.6125
 6494TIP3    H246406   1.133   6.810   6.560  0.6435  0.0893  0.2531
 6495TIP3   OH246407   1.781   0.828   5.159 -0.4369  0.5406  0.3706
 6495TIP3    H146408   1.782   0.733   5.150  1.3433  0.5317  0.2786
 6495TIP3    H246409   1.868   0.856   5.130 -0.6203  2.1190  1.2069
 6496TIP3   OH246410   4.829   5.265   0.404  0.2699  0.0746  0.4626
 6496TIP3    H146411   4.903   5.249   0.344  1.6562 -1.6128  2.4883
 6496TIP3    H246412   4.752   5.233   0.357  0.9918  0.7008 -1.2128
 6497TIP3   OH246413   4.806   5.953   0.745 -0.0566 -0.9828 -0.0603
 6497TIP3    H146414   4.773   5.914   0.826 -0.3438 -1.6022 -0.4647
 6497TIP3    H246415   4.788   5.887   0.678  1.0996 -0.9031 -0.4664
 6498TIP3   OH246416   0.040   1.769   1.159 -0.2030 -0.7456 -0.2065
 6498TIP3    H146417   0.130   1.738   1.173  0.2821  1.1898  1.4323
 6498TIP3    H246418   8.522   1.691   1.170  1.1939 -1.7409 -0.1538
 6499TIP3   OH246419   2.901   4.822   6.562 -0.4428  0.5584 -0.8724
 6499TIP3    H146420   2.990   4.828   6.597 -0.0917  1.5444 -1.9046
 6499TIP3    H246421   2.906   4.863   6.476 -2.2721  2.1870 -0.2674
 6500TIP3   OH246422   0.724   7.211   1.194  0.0790  0.5461  0.4992
 6500TIP3    H146423   0.782   7.277   1.232  0.0893  0.1814  1.1259
 6500TIP3    H246424   0.665   7.187   1.266  0.0668 -0.1138  0.2713
 6501TIP3   OH246425   0.235   5.878   5.765 -0.1041 -0.1168  0.1512
 6501TIP3    H146426   0.282   5.948   5.721 -0.9675 -0.7514 -1.8704
 6501TIP3    H246427   0.292   5.854   5.839  2.0442  0.1137 -1.3448
 6502TIP3   OH246428   6.172   0.165   0.553  0.4385  0.5796  0.1435
 6502TIP3    H146429   6.077   0.160   0.562  0.4919 -2.4406  0.1646
 6502TIP3    H246430   6.189   0.255   0.527 -2.3421  1.4328  0.9278
 6503TIP3   OH246431   3.652   6.771   6.327 -0.0227  0.3006  0.2688
 6503TIP3    H146432   3.560   6.794   6.335  0.1238  0.6805  1.0352
 6503TIP3    H246433   3.667   6.705   6.395  0.8039  2.0520  1.8850
 6504TIP3   OH246434   4.044   1.251   1.336  0.0666 -0.6005 -0.0816
 6504TIP3    H146435   4.085   1.251   1.423 -1.1462  1.9771  0.6081
 6504TIP3    H246436   3.951   1.264   1.354 -0.3255 -0.8635 -1.7739
 6505TIP3   OH246437   5.866   2.016   6.597 -0.0617 -0.5728  0.7727
 6505TIP3    H146438   5.952   1.975   6.594  0.0516 -0.3326  0.7789
 6505TIP3    H246439   5.840   2.024   6.505 -0.2479 -1.0041  0.7840
 6506TIP3   OH246440   7.745   5.111   6.086  0.6664 -0.3670  0.4147
 6506TIP3    H146441   7.713   5.196   6.056 -0.4991 -0.5331  1.1198
 6506TIP3    H246442   7.743   5.056   6.008 -0.6849 -0.3304  0.3937
 6507TIP3   OH246443   3.333   8.099   1.403 -0.4785 -0.8008  0.1153
 6507TIP3    H146444   3.323   8.154   1.481 -0.8440  0.7646 -0.9831
 6507TIP3    H246445   3.428   8.085   1.396 -0.2542  0.7027 -0.2192
 6508TIP3   OH246446   0.893   5.799   6.931  0.0998  0.4706 -0.5257
 6508TIP3    H146447   0.953   5.725   6.930 -1.0392 -0.4938  0.3240
 6508TIP3    H246448   0.915   5.848   7.010 -0.1420  0.1957 -0.2888
 6509TIP3   OH246449   4.932   4.295   5.443 -0.2303 -0.3565  0.1080
 6509TIP3    H146450   4.961   4.218   5.395  1.7739  0.6151 -0.3532
 6509TIP3    H246451   4.888   4.260   5.520 -0.6835 -1.9388 -0.8362
 6510TIP3   OH246452   0.241   3.802   0.948 -0.1367  0.1007 -0.5271
 6510TIP3    H146453   0.254   3.726   1.005 -0.1121  0.1998 -0.4002
 6510TIP3    H246454   0.319   3.856   0.962 -0.9560  1.0225  0.7449
 6511TIP3   OH246455   7.359   6.938   5.736 -0.6493  0.0081 -0.2319
 6511TIP3    H146456   7.409   6.964   5.659  1.0291 -1.7610  0.1859
 6511TIP3    H246457   7.278   6.989   5.731  0.0637  1.0180 -2.3465
 6512TIP3   OH246458   7.761   7.400   1.170  0.3769  0.0809  0.0873
 6512TIP3    H146459   7.726   7.369   1.253  1.0260  0.4919  0.5194
 6512TIP3    H246460   7.825   7.467   1.194  0.6910  0.0874 -0.7313
 6513TIP3   OH246461   1.282   1.494   6.686 -0.2312  0.7410 -0.0066
 6513TIP3    H146462   1.298   1.510   6.593 -1.8681 -1.6161 -0.7908
 6513TIP3    H246463   1.194   1.455   6.689 -0.3395  1.0077  2.5802
 6514TIP3   OH246464   5.831   8.228   4.939  0.3649 -0.5707 -0.2125
 6514TIP3    H146465   5.784   8.308   4.962 -1.0838 -0.8658 -1.8836
 6514TIP3    H246466   5.814   8.217   4.845  0.0324 -3.1206  0.0828
 6515TIP3   OH246467   7.640   6.219   2.152  0.0723 -0.4261  0.1243
 6515TIP3    H146468   7.632   6.167   2.072 -1.9227  1.4728 -1.0017
 6515TIP3    H246469   7.555   6.211   2.195  0.3982  0.2914  0.9395
 6516TIP3   OH246470   1.091   2.773   6.852  0.0950  0.0905  0.1771
 6516TIP3    H146471   1.132   2.846   6.900 -0.9505  0.5070  0.4739
 6516TIP3    H246472   1.011   2.754   6.902 -0.5025 -0.1441 -0.8331
 6517TIP3   OH246473   0.230   6.274   5.862 -0.4500 -0.3191  0.1566
 6517TIP3    H146474   0.280   6.225   5.797 -0.0689 -0.7843  0.7851
 6517TIP3    H246475   0.252   6.366   5.844  1.0361 -0.5380  0.7228
 6518TIP3   OH246476   4.363   5.640   0.676 -0.4343 -0.3790  0.0487
 6518TIP3    H146477   4.389   5.680   0.759  1.2565 -1.8386  0.2774
 6518TIP3    H246478   4.300   5.702   0.638 -0.9927  0.4785  2.2380
 6519TIP3   OH246479   2.678   5.919   6.554 -0.4676 -0.3395  0.6460
 6519TIP3    H146480   2.604   5.879   6.509 -1.1498  0.7461  0.7744
 6519TIP3    H246481   2.675   6.011   6.528 -0.6470  0.2427  2.6003
 6520TIP3   OH246482   5.028   2.795   6.745  0.2517  0.2099 -0.0277
 6520TIP3    H146483   4.946   2.760   6.711  0.5993  0.1296 -0.8034
 6520TIP3    H246484   5.077   2.718   6.774 -0.3400  0.3342  1.3542
 6521TIP3   OH246485   8.470   4.613   0.742 -0.0305  0.5235  0.3147
 6521TIP3    H146486   8.386   4.594   0.785 -0.2213 -1.3658 -0.7913
 6521TIP3    H246487   8.534   4.559   0.788  0.7921  2.5005  1.6373
 6522TIP3   OH246488   7.128   1.532   5.760  0.1319  0.1381 -0.7776
 6522TIP3    H146489   7.211   1.508   5.802  1.3326  0.5990 -2.7497
 6522TIP3    H246490   7.083   1.448   5.747 -0.6205  0.0333  1.9505
 6523TIP3   OH246491   5.720   5.714   5.550  0.0231  0.2919  0.5768
 6523TIP3    H146492   5.637   5.747   5.588  0.8708  1.0317  1.8889
 6523TIP3    H246493   5.701   5.623   5.528 -1.9545  1.1351 -1.7423
 6524TIP3   OH246494   5.316   5.714   0.449 -0.1120  0.2971 -0.0238
 6524TIP3    H146495   5.267   5.635   0.426  1.9483 -0.3722 -2.5760
 6524TIP3    H246496   5.263   5.786   0.415 -1.5408  0.0300  1.4825
 6525TIP3   OH246497   5.634   6.201   5.765 -0.2182 -0.4229 -0.4788
 6525TIP3    H146498   5.724   6.232   5.763 -0.3997  0.0665 -0.9489
 6525TIP3    H246499   5.607   6.196   5.674 -1.0319  0.4929 -0.3044
 6526TIP3   OH246500   3.954   3.820   0.404  0.3323 -0.0847 -0.1056
 6526TIP3    H146501   3.940   3.861   0.489 -0.5121  1.1649 -0.8159
 6526TIP3    H246502   4.043   3.846   0.380  0.7073 -0.7341  0.5238
 6527TIP3   OH246503   0.352   1.004   6.049  0.4689 -0.6030 -0.2421
 6527TIP3    H146504   0.310   1.018   5.963  0.2282  0.8024  0.0786
 6527TIP3    H246505   0.425   0.945   6.030  0.5094 -0.2088 -1.4499
 6528TIP3   OH246506   0.326   1.409   0.327 -0.0774  0.3880 -0.1574
 6528TIP3    H146507   0.358   1.387   0.415 -0.5918 -2.2046 -0.5332
 6528TIP3    H246508   0.369   1.492   0.306  0.3895  0.8727  2.3500
 6529TIP3   OH246509   4.845   2.773   1.290  0.3924 -0.1481  0.6085
 6529TIP3    H146510   4.783   2.746   1.357  2.0034 -1.5496  1.6197
 6529TIP3    H246511   4.791   2.798   1.215 -1.3835 -0.5322  1.7202
 6530TIP3   OH246512   0.404   8.436   5.834  0.0526  0.6050  0.1799
 6530TIP3    H146513   0.358   8.427   5.751 -2.2108 -0.2157  1.4163
 6530TIP3    H246514   0.484   8.483   5.813 -0.8288  1.1221 -2.3221
 6531TIP3   OH246515   1.782   3.786   1.451  0.5742  0.8653 -0.2390
 6531TIP3    H146516   1.831   3.708   1.426 -0.2597  0.4852 -0.7064
 6531TIP3    H246517   1.845   3.858   1.441  0.9955  0.4015 -0.9728
 6532TIP3   OH246518   6.054   2.778   6.998 -0.3039  0.4751 -0.0216
 6532TIP3    H146519   5.984   2.782   6.932  1.0776 -0.6461 -1.6356
 6532TIP3    H246520   6.034   2.701   7.050  0.4377 -0.6763 -1.3816
 6533TIP3   OH246521   8.013   0.525   1.655  0.2384  0.0399  0.3223
 6533TIP3    H146522   8.030   0.619   1.647  0.1202  0.0889  0.6503
 6533TIP3    H246523   7.992   0.497   1.566 -0.2554  0.4278  0.3122
 6534TIP3   OH246524   4.779   7.848   5.240  0.0802 -0.8449  0.0072
 6534TIP3    H146525   4.684   7.852   5.238  0.0790 -1.0615 -0.8344
 6534TIP3    H246526   4.799   7.758   5.214  0.5402 -0.3715 -1.3948
 6535TIP3   OH246527   6.714   1.686   0.350 -0.2218  0.1980 -0.3517
 6535TIP3    H146528   6.767   1.658   0.276  0.6446  2.0736 -0.4902
 6535TIP3    H246529   6.764   1.658   0.427 -0.0174  0.2215 -0.4755
 6536TIP3   OH246530   5.199   5.730   1.556 -0.9723 -0.1111  0.1662
 6536TIP3    H146531   5.121   5.679   1.534 -1.3004  0.3972  0.1442
 6536TIP3    H246532   5.258   5.666   1.597 -1.3854 -0.5046  0.1577
 6537TIP3   OH246533   4.764   7.370   1.458 -0.2950  0.2712 -0.0776
 6537TIP3    H146534   4.773   7.384   1.364  0.2062  0.7033  0.0331
 6537TIP3    H246535   4.722   7.449   1.490 -0.4601  0.1267  0.0645
 6538TIP3   OH246536   5.057   3.049   6.398 -0.6451  0.0499 -0.1165
 6538TIP3    H146537   5.152   3.037   6.401 -0.4592  1.2194 -0.5421
 6538TIP3    H246538   5.025   2.973   6.349  0.1764  0.1075 -0.7759
 6539TIP3   OH246539   2.810   1.222   6.632 -0.1338 -0.4577 -0.4571
 6539TIP3    H146540   2.848   1.271   6.706 -0.6386  1.0930 -1.1742
 6539TIP3    H246541   2.786   1.137   6.669  1.1756 -0.3376  0.7488
 6540TIP3   OH246542   0.486   8.194   6.472 -0.6622 -0.0069 -0.1807
 6540TIP3    H146543   0.548   8.172   6.542 -1.1542  0.7069  0.4874
 6540TIP3    H246544   0.541   8.212   6.396 -0.1257 -0.8537 -0.0089
 6541TIP3   OH246545   3.407   4.305   1.005 -0.4618 -0.1570 -0.1156
 6541TIP3    H146546   3.469   4.361   1.051 -0.5048 -0.0980 -0.1299
 6541TIP3    H246547   3.455   4.224   0.989 -0.4000 -0.1249 -0.0937
 6542TIP3   OH246548   5.015   1.014   1.363 -0.2727  0.4607 -0.2476
 6542TIP3    H146549   5.028   1.063   1.445  1.8350 -1.7722  0.9140
 6542TIP3    H246550   4.929   0.975   1.372  0.4653 -0.9089  1.6828
 6543TIP3   OH246551   5.893   1.281   6.829  0.4256 -0.3263  0.5950
 6543TIP3    H146552   5.825   1.243   6.884  0.8091  1.5084  2.4277
 6543TIP3    H246553   5.863   1.370   6.811 -0.4448 -1.2644 -3.5738
 6544TIP3   OH246554   0.144   8.162   0.150 -0.3434 -1.0265 -0.3197
 6544TIP3    H146555   0.178   8.161   0.060 -0.1205  0.5014 -0.2779
 6544TIP3    H246556   0.213   8.123   0.203  0.5959  0.2934 -0.5036
 6545TIP3   OH246557   1.381   7.878   1.245  0.0109  0.0579 -0.1168
 6545TIP3    H146558   1.454   7.875   1.306 -0.9134  1.4673  1.1180
 6545TIP3    H246559   1.319   7.814   1.278 -0.6120  1.0204  0.6118
 6546TIP3   OH246560   8.305   6.862   6.168  0.1956 -0.4254 -0.3070
 6546TIP3    H146561   8.310   6.931   6.234  1.4586 -1.3103  0.5774
 6546TIP3    H246562   8.273   6.786   6.215  0.7312 -0.9576 -0.7877
 6547TIP3   OH246563   8.070   5.820   2.283 -0.7456 -0.2407  0.0600
 6547TIP3    H146564   8.054   5.886   2.215  0.0564 -1.9055 -1.8452
 6547TIP3    H246565   7.984   5.804   2.322 -0.9038  2.1590  0.8728
 6548TIP3   OH246566   7.174   6.944   6.461 -0.5101 -0.3130  0.1883
 6548TIP3    H146567   7.080   6.943   6.475 -0.5444  0.4314  0.0341
 6548TIP3    H246568   7.203   7.027   6.498  0.0389 -0.3885 -0.0615
 6549TIP3   OH246569   5.697   4.369   1.623  0.1168 -0.0967  0.1862
 6549TIP3    H146570   5.667   4.457   1.602 -0.7979 -0.1604  1.1415
 6549TIP3    H246571   5.668   4.354   1.713 -2.9126 -2.6775 -1.0089
 6550TIP3   OH246572   8.061   2.312   6.886 -0.0793  0.0225 -0.4060
 6550TIP3    H146573   8.004   2.280   6.816  0.3266 -1.7945  0.0556
 6550TIP3    H246574   8.000   2.349   6.950 -0.9932 -3.1667  0.7564
 6551TIP3   OH246575   2.070   7.707   0.524  0.0594  0.2060 -0.1694
 6551TIP3    H146576   2.040   7.629   0.478  0.8611 -1.6221  2.1868
 6551TIP3    H246577   2.034   7.698   0.613  2.7878  0.8090  1.1029
 6552TIP3   OH246578   1.430   6.300   1.149 -0.2022  0.0274 -0.5236
 6552TIP3    H146579   1.388   6.234   1.094  0.2529 -1.4930  0.8852
 6552TIP3    H246580   1.487   6.250   1.207  1.4210  1.8124 -0.4863
 6553TIP3   OH246581   5.484   1.904   6.733  0.4735 -0.4164  0.4612
 6553TIP3    H146582   5.439   1.961   6.795 -0.6898 -1.4191  0.5704
 6553TIP3    H246583   5.439   1.919   6.649  0.3154 -0.9801  0.4406
 6554TIP3   OH246584   8.143   8.317   6.387  0.1709  0.7199  0.3561
 6554TIP3    H146585   8.117   8.385   6.450  0.0449  1.2178 -0.2233
 6554TIP3    H246586   8.061   8.290   6.346  0.2821  0.5909  0.2196
 6555TIP3   OH246587   1.307   8.331   5.648  0.5549  0.5582  0.4128
 6555TIP3    H146588   1.346   8.402   5.598  0.5633  0.6109  0.4946
 6555TIP3    H246589   1.377   8.300   5.706  0.8887 -0.2427 -0.3932
 6556TIP3   OH246590   0.149   6.658   2.092  0.1247  0.3272  0.3354
 6556TIP3    H146591   0.071   6.657   2.037 -0.0062  0.0482  0.5228
 6556TIP3    H246592   0.208   6.720   2.050  0.2194 -0.2487 -0.3896
 6557TIP3   OH246593   5.125   0.257   1.754 -0.4298 -0.3416 -0.4128
 6557TIP3    H146594   5.107   0.186   1.816  1.3215 -2.0517 -1.7397
 6557TIP3    H246595   5.220   0.255   1.743 -0.6759 -0.1388 -3.1248
 6558TIP3   OH246596   8.318   1.951   0.625  0.3153 -0.6582  0.1507
 6558TIP3    H146597   8.269   2.001   0.690  0.2747 -1.7511  0.9853
 6558TIP3    H246598   8.301   1.996   0.542  0.1214  0.5806  0.8352
 6559TIP3   OH246599   7.190   7.839   6.727 -0.3950 -0.4285 -0.2651
 6559TIP3    H146600   7.254   7.898   6.688  0.4878 -1.5708 -0.5911
 6559TIP3    H246601   7.121   7.831   6.660 -2.8328  3.5778  1.3890
 6560TIP3   OH246602   4.076   3.707   5.889 -0.4145 -0.3119  0.4305
 6560TIP3    H146603   4.023   3.637   5.927  2.3695 -1.3039  2.8222
 6560TIP3    H246604   4.080   3.774   5.958  0.5578  0.1952 -0.0979
 6561TIP3   OH246605   0.287   6.749   5.502  0.1670 -0.2034  0.1998
 6561TIP3    H146606   0.276   6.687   5.430  1.4239 -2.3621  1.7107
 6561TIP3    H246607   0.200   6.785   5.517 -0.1667  0.1167 -2.1667
 6562TIP3   OH246608   6.292   7.407   1.311 -0.2389  0.2390  0.1724
 6562TIP3    H146609   6.352   7.376   1.380 -0.5387 -2.0024 -0.4790
 6562TIP3    H246610   6.206   7.375   1.338 -0.4912  0.0637 -0.8059
 6563TIP3   OH246611   8.022   7.150   1.216  0.5517  0.7730  0.4444
 6563TIP3    H146612   7.959   7.185   1.279  0.9898  1.5742  0.4451
 6563TIP3    H246613   7.969   7.102   1.153 -0.1186  1.8568  0.1571
 6564TIP3   OH246614   4.326   7.149   5.562 -0.2431 -0.4806  0.3334
 6564TIP3    H146615   4.278   7.143   5.644  0.0996 -1.4498  0.4726
 6564TIP3    H246616   4.318   7.062   5.522 -2.8410  0.7029 -2.0766
 6565TIP3   OH246617   1.770   0.407   5.532  0.3253 -0.2335 -0.0816
 6565TIP3    H146618   1.864   0.410   5.546  0.3985  0.5734 -0.6995
 6565TIP3    H246619   1.756   0.453   5.450 -0.5935 -0.5167 -0.0988
 6566TIP3   OH246620   6.095   2.947   0.648 -0.8031 -0.1492 -0.4346
 6566TIP3    H146621   6.000   2.962   0.641 -0.7836  0.5852  0.6046
 6566TIP3    H246622   6.104   2.852   0.656 -1.5865 -0.1394  0.9784
 6567TIP3   OH246623   3.581   5.056   5.702 -0.5178 -0.5125 -0.3734
 6567TIP3    H146624   3.489   5.042   5.680 -0.4744  0.3092 -1.1125
 6567TIP3    H246625   3.630   5.019   5.628 -0.3428  1.2601 -1.1935
 6568TIP3   OH246626   8.196   6.385   6.758 -0.1869  0.0705  0.5371
 6568TIP3    H146627   8.151   6.301   6.769  0.8345 -0.6322 -0.3471
 6568TIP3    H246628   8.284   6.361   6.730  0.4942  1.4238  1.4227
 6569TIP3   OH246629   0.544   4.217   5.434  0.2588 -0.5803  0.0977
 6569TIP3    H146630   0.629   4.202   5.393  0.3893 -2.3948  0.9350
 6569TIP3    H246631   0.566   4.245   5.523 -0.0365  0.2532 -0.0822
 6570TIP3   OH246632   4.703   4.535   1.604 -0.1579  0.7313 -0.1163
 6570TIP3    H146633   4.714   4.443   1.627  0.8706  1.0318  0.6502
 6570TIP3    H246634   4.668   4.533   1.515  1.7526 -0.4120 -0.9205
 6571TIP3   OH246635   4.130   0.548   6.592 -0.1999  0.1748  0.3251
 6571TIP3    H146636   4.069   0.609   6.634 -1.3611  0.0584 -1.1370
 6571TIP3    H246637   4.089   0.462   6.600  1.6565 -0.6366  2.8198
 6572TIP3   OH246638   5.062   0.045   4.572 -0.0616  0.2114 -0.2428
 6572TIP3    H146639   4.978   0.012   4.540  0.3833 -0.5514 -0.6415
 6572TIP3    H246640   5.123   8.509   4.557  1.0185  1.3556 -1.5164
 6573TIP3   OH246641   5.925   0.687   5.349 -0.7739 -0.1476  0.3066
 6573TIP3    H146642   5.917   0.593   5.334  1.4212 -0.4574  0.7341
 6573TIP3    H246643   6.011   0.698   5.390 -0.2522  2.2016 -1.1667
 6574TIP3   OH246644   7.371   6.764   5.946 -0.0348 -0.1536  0.9350
 6574TIP3    H146645   7.393   6.826   6.015 -1.0494 -0.1067  1.2243
 6574TIP3    H246646   7.385   6.812   5.864 -0.8957  0.4885  1.1590
 6575TIP3   OH246647   2.410   2.863   5.836  0.1410 -0.5711  0.4818
 6575TIP3    H146648   2.435   2.770   5.839 -2.2661 -1.3028  0.9742
 6575TIP3    H246649   2.491   2.911   5.846  1.4243 -2.6466  0.6102
 6576TIP3   OH246650   0.844   3.628   4.953 -0.0518 -0.2626  0.0959
 6576TIP3    H146651   0.779   3.565   4.923  0.0816 -0.4684  0.2376
 6576TIP3    H246652   0.903   3.578   5.010  0.5573 -0.2074 -0.4654
 6577TIP3   OH246653   2.265   8.295   0.380  0.4792  0.4241  0.0856
 6577TIP3    H146654   2.343   8.351   0.384  0.7193  0.1576 -0.7878
 6577TIP3    H246655   2.276   8.244   0.300 -0.4087  0.1058  0.1588
 6578TIP3   OH246656   0.245   1.455   0.053  1.0784 -0.0562  0.1681
 6578TIP3    H146657   0.274   1.431   0.141  0.7067 -0.1545  0.2655
 6578TIP3    H246658   0.188   1.383   0.026  1.1999 -0.0333 -0.1610
 6579TIP3   OH246659   7.347   8.036   6.366  0.1432 -0.1971  0.7418
 6579TIP3    H146660   7.308   7.956   6.402 -1.0532 -0.7636 -1.5743
 6579TIP3    H246661   7.320   8.105   6.426  0.0053 -1.3242  2.0356
 6580TIP3   OH246662   4.853   0.204   5.838 -0.0240 -0.5532  0.4056
 6580TIP3    H146663   4.932   0.179   5.790  0.8268  1.5630  0.6048
 6580TIP3    H246664   4.833   0.292   5.807 -1.4474 -0.4669  1.4721
 6581TIP3   OH246665   4.624   1.910   6.905  0.5448  0.5145  0.6035
 6581TIP3    H146666   4.552   1.967   6.881 -0.2716 -0.4799  0.6452
 6581TIP3    H246667   4.670   1.958   6.974  0.9025  1.8640 -0.5310
 6582TIP3   OH246668   5.093   6.646   1.641 -0.4927 -0.3612  0.4483
 6582TIP3    H146669   5.084   6.678   1.731 -2.2013  1.1394 -0.1909
 6582TIP3    H246670   5.141   6.716   1.596 -0.7991 -0.4859 -0.0780
 6583TIP3   OH246671   4.900   6.322   6.117 -0.1239 -0.0654  0.1270
 6583TIP3    H146672   4.900   6.251   6.181  2.2006 -0.9790 -0.7583
 6583TIP3    H246673   4.820   6.371   6.135 -0.7450 -1.6726  2.1397
 6584TIP3   OH246674   7.673   3.253   0.466  0.7164  0.8027  0.3391
 6584TIP3    H146675   7.615   3.248   0.390  0.1347  0.3985  0.8013
 6584TIP3    H246676   7.736   3.181   0.454  1.5387  1.6335 -0.4862
 6585TIP3   OH246677   7.530   7.074   0.507 -0.4924 -0.2671  0.2368
 6585TIP3    H146678   7.529   7.147   0.444  1.7287  0.2776  0.7361
 6585TIP3    H246679   7.584   7.007   0.465  1.2871  0.2264  1.6003
 6586TIP3   OH246680   2.884   2.692   6.437 -0.5896  0.0275 -0.4257
 6586TIP3    H146681   2.901   2.781   6.467  2.5496 -0.4057 -0.5358
 6586TIP3    H246682   2.867   2.701   6.343 -0.7794  0.5574 -0.3431
 6587TIP3   OH246683   3.313   8.149   6.602 -0.0254  0.1194 -0.4219
 6587TIP3    H146684   3.396   8.107   6.581  0.6577  0.1310  1.9762
 6587TIP3    H246685   3.318   8.166   6.696 -2.7290  0.1832 -0.2218
 6588TIP3   OH246686   1.532   8.324   1.021 -0.3954  0.4265  0.2626
 6588TIP3    H146687   1.447   8.365   1.036  0.2688  1.3514  1.8044
 6588TIP3    H246688   1.596   8.393   1.043  0.7739 -0.0548 -1.3959
 6589TIP3   OH246689   4.363   5.554   0.173 -0.1346 -0.4794 -0.1735
 6589TIP3    H146690   4.288   5.498   0.194  0.1512 -0.5671  0.6597
 6589TIP3    H246691   4.405   5.570   0.257 -0.2646  1.0723 -0.3717
 6590TIP3   OH246692   5.387   5.878   5.416 -0.0134  0.2404 -0.2670
 6590TIP3    H146693   5.352   5.893   5.503  2.0102  2.4308  0.2893
 6590TIP3    H246694   5.360   5.955   5.366  0.4342 -0.0831 -1.0175
 6591TIP3   OH246695   0.689   5.725   1.083  0.2844  0.2862 -1.0132
 6591TIP3    H146696   0.692   5.647   1.138 -0.3240  0.5246 -0.6273
 6591TIP3    H246697   0.781   5.747   1.067  0.4791  0.4313  0.2187
 6592TIP3   OH246698   0.589   7.345   5.695 -0.9624 -0.0915  0.0596
 6592TIP3    H146699   0.559   7.301   5.615 -1.2293 -0.9460  0.6162
 6592TIP3    H246700   0.684   7.353   5.684 -0.6935 -2.0467  0.5104
 6593TIP3   OH246701   6.987   0.516   1.407  0.1039  0.1553  0.5753
 6593TIP3    H146702   6.949   0.461   1.339  0.4343  1.7614 -0.9645
 6593TIP3    H246703   7.009   0.454   1.477 -2.4357 -1.2333  0.2710
 6594TIP3   OH246704   4.530   1.927   0.298  0.5979  0.4783 -0.2996
 6594TIP3    H146705   4.504   1.844   0.339  0.2971 -0.4343 -2.2168
 6594TIP3    H246706   4.466   1.990   0.331  0.3485 -0.2108  0.5951
 6595TIP3   OH246707   6.035   8.498   1.241  0.4216  0.1458 -0.1001
 6595TIP3    H146708   6.056   0.029   1.306 -0.6626  0.0538  0.3561
 6595TIP3    H246709   5.951   8.461   1.269  0.3112 -0.4343 -1.1182
 6596TIP3   OH246710   7.212   7.530   7.044  0.9978 -0.4266  0.1067
 6596TIP3    H146711   7.185   7.618   7.021 -1.5078 -1.3436 -0.7876
 6596TIP3    H246712   7.242   7.491   6.962 -3.0921 -2.0457 -0.8509
 6597TIP3   OH246713   3.476   0.552   0.118 -0.1528 -0.1936  0.3297
 6597TIP3    H146714   3.504   0.498   0.045  1.2491  0.8627  0.0306
 6597TIP3    H246715   3.525   0.519   0.193 -1.6690 -1.3465  0.8674
 6598TIP3   OH246716   8.076   8.360   5.231  0.6164 -0.5952  0.0899
 6598TIP3    H146717   8.126   8.387   5.308 -0.2472  0.6201  0.2571
 6598TIP3    H246718   8.138   8.312   5.178  1.2462 -1.4465  1.5231
 6599TIP3   OH246719   6.791   7.244   1.113 -0.2933 -0.3449 -0.8518
 6599TIP3    H146720   6.882   7.258   1.085  0.0996  0.2492  0.6597
 6599TIP3    H246721   6.746   7.324   1.087  0.3457  0.7478  1.2203
 6600TIP3   OH246722   7.002   4.182   0.037  0.1524  0.3903  0.3876
 6600TIP3    H146723   7.077   4.145   7.061 -2.0330 -0.5731 -2.6454
 6600TIP3    H246724   6.958   4.106   0.077  2.0139  1.1796  4.5045
 6601TIP3   OH246725   2.289   2.050   6.375  0.1123 -0.3461 -0.4102
 6601TIP3    H146726   2.219   2.090   6.427 -0.9989 -0.0416 -2.0708
 6601TIP3    H246727   2.291   1.958   6.405  2.0787  0.5571  2.7912
 6602TIP3   OH246728   5.089   3.748   0.543 -0.2976  0.5706  0.1744
 6602TIP3    H146729   5.004   3.784   0.569 -1.1061 -2.6347  2.6422
 6602TIP3    H246730   5.113   3.689   0.615  0.9536 -3.4726 -3.1827
 6603TIP3   OH246731   7.350   5.721   5.573 -0.1354 -0.1903 -0.2029
 6603TIP3    H146732   7.342   5.726   5.477 -2.1489  0.3546 -0.0399
 6603TIP3    H246733   7.444   5.713   5.588  0.2445 -0.1488 -2.2207
 6604TIP3   OH246734   5.253   6.998   6.322  0.6335  0.0865  0.5002
 6604TIP3    H146735   5.292   7.058   6.258 -0.6876 -0.4582 -0.8933
 6604TIP3    H246736   5.242   7.050   6.401  0.2671  1.4589 -0.4197
 6605TIP3   OH246737   7.563   6.948   0.158 -0.2161 -0.2367 -0.2022
 6605TIP3    H146738   7.579   6.896   0.079  0.9647 -2.1198  1.1685
 6605TIP3    H246739   7.649   6.985   0.179 -0.4353 -0.0566  0.3802
 6606TIP3   OH246740   6.202   3.827   1.378 -0.8710  0.6552  0.1152
 6606TIP3    H146741   6.199   3.832   1.474 -2.1740 -0.2242  0.1451
 6606TIP3    H246742   6.246   3.908   1.351  0.1657  0.5787  1.4794
 6607TIP3   OH246743   5.807   4.700   5.262  0.0736  0.6000 -0.0098
 6607TIP3    H146744   5.826   4.683   5.170  2.1010 -1.8332  0.7596
 6607TIP3    H246745   5.881   4.752   5.293  0.5271 -0.4345  0.7099
 6608TIP3   OH246746   0.082   2.713   1.784 -0.3811  0.0956 -0.2830
 6608TIP3    H146747   8.523   2.716   1.800  0.0838  0.6422  2.9838
 6608TIP3    H246748   0.114   2.796   1.818  1.5175 -1.0237  0.8168
 6609TIP3   OH246749   6.855   7.812   6.988 -0.2696  0.1877 -0.4536
 6609TIP3    H146750   6.843   7.821   0.012 -2.4035  0.5673 -0.7023
 6609TIP3    H246751   6.845   7.902   6.955  1.0515  0.1512 -1.0152
 6610TIP3   OH246752   7.854   7.395   6.445  0.2936  0.2517  0.1780
 6610TIP3    H146753   7.938   7.368   6.482 -0.5221 -0.5097  1.5275
 6610TIP3    H246754   7.817   7.315   6.407  1.1949  1.0292 -2.6176
 6611TIP3   OH246755   2.490   4.791   5.385  0.7285 -0.0231  0.1430
 6611TIP3    H146756   2.479   4.886   5.393  0.6415 -0.0250  0.0497
 6611TIP3    H246757   2.534   4.765   5.466  0.0866 -0.0108  0.5001
 6612TIP3   OH246758   6.804   5.724   6.502  0.2031 -0.0333  0.4268
 6612TIP3    H146759   6.886   5.771   6.487 -0.2669  2.2715  3.8801
 6612TIP3    H246760   6.823   5.665   6.575 -1.1989  0.6526  1.3892
 6613TIP3   OH246761   7.289   4.556   1.130 -0.0923 -0.0402  0.2438
 6613TIP3    H146762   7.384   4.553   1.139 -0.0474  0.3502 -0.0474
 6613TIP3    H246763   7.259   4.606   1.207 -0.3355 -2.5861  1.9272
 6614TIP3   OH246764   6.225   6.050   1.150  0.4342  0.5361 -0.3218
 6614TIP3    H146765   6.172   6.129   1.161 -3.3351 -1.8243  0.5141
 6614TIP3    H246766   6.210   6.024   1.059  1.6721  0.7508 -0.6006
 6615TIP3   OH246767   0.903   1.863   0.518 -0.2522 -0.7506  0.0769
 6615TIP3    H146768   0.945   1.782   0.488  0.2252  0.6616 -3.5850
 6615TIP3    H246769   0.811   1.853   0.494 -0.6988 -1.0737  1.7861
 6616TIP3   OH246770   5.413   3.640   1.228 -0.4935  0.7784  0.1995
 6616TIP3    H146771   5.483   3.593   1.274 -0.6444 -0.2501 -0.5613
 6616TIP3    H246772   5.459   3.708   1.178 -0.0062  0.1113 -0.2938
 6617TIP3   OH246773   6.976   1.218   6.493 -0.0104 -0.2351 -0.3335
 6617TIP3    H146774   6.947   1.141   6.542  0.2627  0.3326  0.7270
 6617TIP3    H246775   7.061   1.193   6.457  0.3157 -0.2428  0.4396
 6618TIP3   OH246776   0.036   2.059   0.492  0.5684 -0.3429  0.2366
 6618TIP3    H146777   8.503   2.017   0.543 -0.0890  0.0688 -0.2810
 6618TIP3    H246778   0.117   2.020   0.523  0.1917 -0.1450  1.5514
 6619TIP3   OH246779   3.653   5.165   0.630  0.1386  0.0991 -0.1741
 6619TIP3    H146780   3.622   5.201   0.547 -0.8249 -1.6957 -0.6239
 6619TIP3    H246781   3.622   5.075   0.632  1.7769 -0.5100  1.2848
 6620TIP3   OH246782   1.186   2.589   1.045 -0.2341 -0.4476 -0.0775
 6620TIP3    H146783   1.176   2.639   1.126 -1.6794 -2.1789  0.8977
 6620TIP3    H246784   1.278   2.564   1.043  0.1797  1.0040  0.1506
 6621TIP3   OH246785   8.341   3.011   0.206 -0.0080 -0.2869 -0.3051
 6621TIP3    H146786   8.301   2.937   0.161 -0.8289  0.0132 -0.0879
 6621TIP3    H246787   8.272   3.044   0.264 -0.4670  2.1070 -2.0855
 6622TIP3   OH246788   1.566   5.182   6.486  0.2057 -0.1958 -0.2598
 6622TIP3    H146789   1.555   5.250   6.552  1.3002  1.4415 -1.7051
 6622TIP3    H246790   1.489   5.126   6.498  0.2396  0.1516  2.2172
 6623TIP3   OH246791   1.659   7.760   0.034 -0.2433  0.5122 -0.2038
 6623TIP3    H146792   1.583   7.789   7.054  0.1888 -0.2601 -1.3335
 6623TIP3    H246793   1.733   7.774   7.047  0.3621  0.2944  0.5022
 6624TIP3   OH246794   3.912   0.918   6.882  0.1377  0.4247 -0.0439
 6624TIP3    H146795   3.946   0.916   6.972  1.6530 -0.9208 -0.5917
 6624TIP3    H246796   3.843   0.984   6.884  0.9221  1.2703  1.8315
 6625TIP3   OH246797   2.240   2.546   1.375  0.3283 -0.3016  0.2208
 6625TIP3    H146798   2.316   2.578   1.326 -0.1428  1.7224  0.7155
 6625TIP3    H246799   2.189   2.496   1.310  0.6037  0.8333 -0.9097
 6626TIP3   OH246800   4.227   8.054   5.881  0.5942 -0.3759 -0.6094
 6626TIP3    H146801   4.134   8.054   5.861  0.8192  1.9074 -1.8868
 6626TIP3    H246802   4.270   8.084   5.801  2.5012 -1.7397 -0.1862
 6627TIP3   OH246803   7.799   2.966   6.051  0.3948  0.2151 -0.3331
 6627TIP3    H146804   7.854   2.981   5.974  1.4052  2.3309  0.6898
 6627TIP3    H246805   7.802   2.872   6.066  1.0677 -0.0967 -2.2215
 6628TIP3   OH246806   0.713   7.073   6.922 -0.1464 -0.2986 -0.1116
 6628TIP3    H146807   0.752   6.988   6.902 -0.6817 -0.8099  0.9343
 6628TIP3    H246808   0.626   7.069   6.883 -0.4018 -0.4858  0.4568
 6629TIP3   OH246809   0.830   4.278   6.212 -0.1661  0.7348  0.0069
 6629TIP3    H146810   0.752   4.227   6.192  0.2808 -0.0276  0.1973
 6629TIP3    H246811   0.904   4.221   6.192  0.3823  1.7504 -1.0066
 6630TIP3   OH246812   7.348   2.248   5.755  0.1168 -0.1874 -0.4366
 6630TIP3    H146813   7.435   2.231   5.791  0.4129 -0.0683 -1.0872
 6630TIP3    H246814   7.354   2.336   5.718 -0.5730  0.2166  0.3781
 6631TIP3   OH246815   7.925   6.924   0.974  0.4343 -0.2583 -0.3135
 6631TIP3    H146816   7.880   7.007   0.990 -0.6681 -0.7719 -0.6459
 6631TIP3    H246817   7.922   6.879   1.058  2.4173  0.6574  0.2924
 6632TIP3   OH246818   3.141   5.261   0.218 -0.1403 -0.5151  0.0453
 6632TIP3    H146819   3.225   5.215   0.226  0.8912  1.0041 -1.2873
 6632TIP3    H246820   3.145   5.329   0.285 -0.2365 -0.3515 -0.1149
 6633TIP3   OH246821   7.956   6.217   7.007 -0.1631 -0.1527 -0.4309
 6633TIP3    H146822   7.999   6.143   6.964  0.3872  0.3214 -0.7134
 6633TIP3    H246823   7.872   6.182   7.036 -0.1555 -0.7306 -1.0795
 6634TIP3   OH246824   0.508   2.070   0.277 -0.5966  0.0907  0.0654
 6634TIP3    H146825   0.579   2.075   0.214  0.7722 -0.5789  1.4994
 6634TIP3    H246826   0.519   2.147   0.332 -1.1232  0.1109  0.1472
 6635TIP3   OH246827   6.110   3.558   6.475 -0.6859 -0.5345  0.2226
 6635TIP3    H146828   6.198   3.547   6.511  0.1321 -0.1729 -1.5576
 6635TIP3    H246829   6.123   3.607   6.395 -2.7404  1.1978  0.8537
 6636TIP3   OH246830   6.207   7.206   1.540 -0.3509  0.2780 -0.0975
 6636TIP3    H146831   6.279   7.236   1.596 -0.0603 -0.0490 -0.2953
 6636TIP3    H246832   6.134   7.264   1.562 -0.1644  0.3098  0.4429
 6637TIP3   OH246833   5.498   7.029   0.350  0.2443 -0.5722 -0.2793
 6637TIP3    H146834   5.522   7.094   0.416 -0.1353 -1.7368  1.0669
 6637TIP3    H246835   5.579   6.981   0.333 -0.1350 -1.8395  1.2066
 6638TIP3   OH246836   3.828   7.540   6.294  0.5034  0.1321 -0.7040
 6638TIP3    H146837   3.909   7.590   6.305  0.0222  0.8059 -0.1283
 6638TIP3    H246838   3.820   7.490   6.375  0.7521 -0.5592 -1.0971
 6639TIP3   OH246839   1.538   6.809   6.436  0.3743  0.4379 -0.1932
 6639TIP3    H146840   1.548   6.901   6.459  1.1877  0.3090  0.0098
 6639TIP3    H246841   1.502   6.810   6.347 -0.7389  0.9401  0.2517
 6640TIP3   OH246842   7.118   4.818   5.508 -0.3202 -0.1894 -0.2953
 6640TIP3    H146843   7.110   4.755   5.436 -0.1415 -0.8167  0.2247
 6640TIP3    H246844   7.067   4.894   5.479 -1.8805 -1.1792 -0.2552
 6641TIP3   OH246845   5.408   8.408   7.010  0.0363 -0.0695 -0.3559
 6641TIP3    H146846   5.415   8.491   6.962 -1.3491 -0.3287 -1.0692
 6641TIP3    H246847   5.480   8.410   0.002  0.3930  1.4055 -0.7748
 6642TIP3   OH246848   2.670   0.159   5.725  0.2141 -0.4083 -0.3108
 6642TIP3    H146849   2.576   0.176   5.729  0.5879  1.9062 -0.0453
 6642TIP3    H246850   2.677   0.068   5.696 -2.0887 -0.6767 -0.1925
 6643TIP3   OH246851   2.333   6.778   6.418  0.2397 -0.1599  0.5597
 6643TIP3    H146852   2.257   6.803   6.364  0.3888 -1.2297 -0.1626
 6643TIP3    H246853   2.310   6.809   6.506 -0.7513  0.1053  0.2293
 6644TIP3   OH246854   1.385   5.768   0.511  0.4080 -0.0490 -0.0869
 6644TIP3    H146855   1.368   5.816   0.592 -0.4143  0.3423 -0.4869
 6644TIP3    H246856   1.397   5.836   0.444  1.3999 -0.3596 -0.2536
 6645TIP3   OH246857   4.266   7.844   0.779 -0.7893  0.8471 -0.1649
 6645TIP3    H146858   4.330   7.773   0.772  0.0554  1.6221 -0.4894
 6645TIP3    H246859   4.291   7.891   0.859 -2.6373 -0.4402  1.2487
 6646TIP3   OH246860   3.904   4.984   6.089  0.0165 -0.2397 -0.0378
 6646TIP3    H146861   3.830   5.002   6.147 -0.9735  2.0252 -1.8609
 6646TIP3    H246862   3.870   5.002   6.001  2.5049  0.0315 -1.0058
 6647TIP3   OH246863   8.305   3.764   0.338 -0.0151  0.3559  0.2218
 6647TIP3    H146864   8.367   3.748   0.409  0.2968  0.4773 -0.0188
 6647TIP3    H246865   8.359   3.769   0.259 -0.3786  0.0382 -0.0518
 6648TIP3   OH246866   4.274   3.698   0.618 -0.4485 -0.0811  0.3497
 6648TIP3    H146867   4.217   3.759   0.665  1.3332  1.0423  1.1902
 6648TIP3    H246868   4.221   3.620   0.605 -2.1285  0.8829  1.1407
 6649TIP3   OH246869   1.472   2.297   0.120  0.1512  0.1979 -0.2080
 6649TIP3    H146870   1.398   2.268   0.065  0.9571  0.9531 -1.7486
 6649TIP3    H246871   1.495   2.219   0.171 -2.2769  0.1894  1.0351
 6650TIP3   OH246872   4.302   3.390   0.907 -0.0161 -0.0521 -0.1002
 6650TIP3    H146873   4.396   3.370   0.899  0.0943  0.2025  0.4476
 6650TIP3    H246874   4.301   3.482   0.936 -0.4493  0.0872 -0.5489
 6651TIP3   OH246875   8.134   5.087   6.013  0.5420  0.0999  0.8557
 6651TIP3    H146876   8.204   5.078   5.948 -1.4121  1.0166 -1.5494
 6651TIP3    H246877   8.096   5.000   6.019 -0.0205  0.2470 -0.2213
 6652TIP3   OH246878   1.375   6.570   0.771  0.6862 -0.0685 -0.2669
 6652TIP3    H146879   1.386   6.600   0.681 -0.2720  1.9217  0.2278
 6652TIP3    H246880   1.281   6.550   0.778 -0.1304  3.5523  1.2620
 6653TIP3   OH246881   5.012   6.138   1.819  0.1849 -0.1604  0.0435
 6653TIP3    H146882   5.008   6.226   1.783 -1.5347 -0.4566 -0.6070
 6653TIP3    H246883   5.097   6.133   1.863  0.6846  1.5018 -0.6754
 6654TIP3   OH246884   2.797   0.184   5.976 -0.4560  0.4757  0.2129
 6654TIP3    H146885   2.750   0.207   5.896  0.5918  0.8688 -0.3015
 6654TIP3    H246886   2.793   0.263   6.029 -0.4179  0.4895  0.1949
 6655TIP3   OH246887   4.782   1.341   7.030  0.2608  0.8070  0.0800
 6655TIP3    H146888   4.780   1.346   6.934  0.3828  2.1229  0.1309
 6655TIP3    H246889   4.699   1.381   7.057  0.4127  0.8109  0.5374
 6656TIP3   OH246890   3.601   2.099   5.478 -0.0674 -0.1506  0.2885
 6656TIP3    H146891   3.525   2.154   5.457 -0.3639 -1.2497 -1.8159
 6656TIP3    H246892   3.677   2.150   5.451 -0.1828  0.1752  0.5786
 6657TIP3   OH246893   3.060   1.721   6.643  0.6906  0.1082  0.2965
 6657TIP3    H146894   2.999   1.789   6.614 -0.2005 -0.0599  1.6707
 6657TIP3    H246895   3.141   1.768   6.662  0.7903  0.4415 -0.9077
 6658TIP3   OH246896   2.239   7.993   1.191  0.4936 -0.0067  0.0567
 6658TIP3    H146897   2.324   8.000   1.235  0.8227 -0.5510 -0.4848
 6658TIP3    H246898   2.244   7.911   1.141 -0.2754  0.0573 -0.1339
 6659TIP3   OH246899   6.105   1.780   0.496 -0.0130 -0.7597  0.4779
 6659TIP3    H146900   6.187   1.791   0.448  0.6002 -1.7835  1.2374
 6659TIP3    H246901   6.037   1.795   0.431  0.7666  0.1936 -0.1538
 6660TIP3   OH246902   4.900   5.583   6.079  0.2619  0.1071 -0.2302
 6660TIP3    H146903   4.978   5.628   6.112 -1.1477  3.4627 -1.0470
 6660TIP3    H246904   4.914   5.577   5.985 -0.9400  1.9604 -0.5745
 6661TIP3   OH246905   2.438   1.468   5.629  0.0455  0.3843 -0.1054
 6661TIP3    H146906   2.374   1.482   5.560 -0.2370 -0.4095 -0.0118
 6661TIP3    H246907   2.492   1.395   5.599 -0.0131  0.0981  0.4615
 6662TIP3   OH246908   3.081   3.530   6.502 -0.7016  0.1674  0.1772
 6662TIP3    H146909   3.152   3.574   6.549 -1.2459  1.3634 -0.0784
 6662TIP3    H246910   3.062   3.587   6.428 -1.0856 -0.7841 -0.4840
 6663TIP3   OH246911   4.125   6.769   6.426  0.2012 -0.4632  0.1736
 6663TIP3    H146912   4.140   6.696   6.366  0.6332 -1.5166  1.5101
 6663TIP3    H246913   4.090   6.838   6.371  1.2441 -1.1350 -1.4185
 6664TIP3   OH246914   6.762   5.696   0.133 -0.0327  0.4438  0.4233
 6664TIP3    H146915   6.730   5.629   0.072  0.8731  0.2035  0.1838
 6664TIP3    H246916   6.787   5.648   0.211  2.3803  0.1628 -0.4093
 6665TIP3   OH246917   3.567   7.453   1.308 -0.1618  0.2495 -0.1855
 6665TIP3    H146918   3.486   7.431   1.262  0.3274  2.0901 -2.0962
 6665TIP3    H246919   3.539   7.495   1.389 -1.0601 -2.0031  0.7353
 6666TIP3   OH246920   3.378   4.793   6.947 -0.4360 -0.4492 -0.4201
 6666TIP3    H146921   3.331   4.750   7.018 -1.7647 -1.2558 -1.7421
 6666TIP3    H246922   3.447   4.731   6.923 -0.7131 -0.6947 -0.5898
 6667TIP3   OH246923   7.501   1.044   5.732  0.2692 -0.3704  0.1874
 6667TIP3    H146924   7.583   1.039   5.682 -0.8027  1.6929 -1.9434
 6667TIP3    H246925   7.433   1.015   5.671 -0.8851  0.3014  1.1029
 6668TIP3   OH246926   2.420   3.627   0.595 -0.1551 -0.0476  0.5380
 6668TIP3    H146927   2.426   3.698   0.658  0.4140  1.0593 -0.7195
 6668TIP3    H246928   2.455   3.663   0.513 -2.6224 -0.7977 -0.9575
 6669TIP3   OH246929   3.834   2.259   0.399  0.2417  0.2506  0.5953
 6669TIP3    H146930   3.835   2.253   0.494 -1.7622 -0.5508  0.6224
 6669TIP3    H246931   3.847   2.352   0.381 -0.4084  0.5774  1.7110
 6670TIP3   OH246932   6.763   6.046   1.704  0.2908  0.8303  0.6877
 6670TIP3    H146933   6.701   5.974   1.696  0.6411  0.6941 -1.4133
 6670TIP3    H246934   6.722   6.119   1.658  0.6855  1.4685  1.3228
 6671TIP3   OH246935   6.877   7.636   6.098  0.2209  0.1491  0.0181
 6671TIP3    H146936   6.943   7.575   6.064 -1.8027 -0.2787 -3.5996
 6671TIP3    H246937   6.872   7.616   6.192  1.7303 -3.1757 -0.4799
 6672TIP3   OH246938   3.351   4.876   5.903  0.1180 -0.1609  0.3365
 6672TIP3    H146939   3.389   4.945   5.958 -2.2190  1.6511 -0.1741
 6672TIP3    H246940   3.347   4.914   5.816 -1.2115 -0.9417  0.0328
 6673TIP3   OH246941   0.602   5.670   6.065  0.4941 -0.2742 -0.1583
 6673TIP3    H146942   0.617   5.678   6.159 -0.8308  1.3908 -0.0452
 6673TIP3    H246943   0.512   5.701   6.052  0.4653 -0.9696 -1.9215
 6674TIP3   OH246944   6.268   5.212   5.576  1.0914  0.2946 -0.0597
 6674TIP3    H146945   6.185   5.180   5.610  1.8859 -1.2825  0.5142
 6674TIP3    H246946   6.253   5.305   5.558 -0.4238  0.3262  1.1752
 6675TIP3   OH246947   3.984   3.031   1.278 -0.1746 -0.5215 -0.1133
 6675TIP3    H146948   4.002   2.946   1.319 -0.0169  0.0603  1.0760
 6675TIP3    H246949   3.889   3.041   1.282 -0.5103 -1.8024 -2.7244
 6676TIP3   OH246950   3.500   3.056   0.062 -0.2467 -0.0691  0.1752
 6676TIP3    H146951   3.432   2.999   0.099 -0.2592  0.4028  0.8917
 6676TIP3    H246952   3.566   2.996   0.029 -0.3216 -0.5041  0.8042
 6677TIP3   OH246953   1.834   7.089   1.324  0.0402  0.5769  0.2337
 6677TIP3    H146954   1.848   7.079   1.230  2.3564  1.5983  0.4202
 6677TIP3    H246955   1.840   7.184   1.339  0.1976  0.3831  1.4777
 6678TIP3   OH246956   5.922   4.687   5.587  0.4050 -1.1989 -0.4812
 6678TIP3    H146957   6.004   4.640   5.574  1.3603 -0.4809  2.2476
 6678TIP3    H246958   5.937   4.773   5.548  1.2035 -0.8873  0.4673
 6679TIP3   OH246959   5.017   4.212   6.535  0.0510 -0.1453 -0.3223
 6679TIP3    H146960   4.932   4.252   6.515 -0.0384  0.0522  0.3983
 6679TIP3    H246961   4.996   4.119   6.549  0.3925 -0.6674 -2.8614
 6680TIP3   OH246962   0.153   2.513   0.692 -0.1533  0.6980 -0.4100
 6680TIP3    H146963   0.233   2.536   0.644  1.1916  0.1291  1.4211
 6680TIP3    H246964   0.140   2.587   0.753 -0.3157  0.2355  0.1223
 6681TIP3   OH246965   6.006   5.261   6.873  0.3412 -0.0104 -0.4324
 6681TIP3    H146966   5.929   5.303   6.834 -0.5901 -1.0613  0.2225
 6681TIP3    H246967   6.051   5.332   6.918  1.4664  1.2660 -3.2954
 6682TIP3   OH246968   8.489   6.340   0.644 -0.5485  0.2738  0.5771
 6682TIP3    H146969   8.432   6.264   0.657 -0.0018 -0.0695  1.0369
 6682TIP3    H246970   8.481   6.360   0.551 -0.7196 -0.3366  0.4535
 6683TIP3   OH246971   2.421   2.892   6.952  0.2729 -0.2989 -0.0187
 6683TIP3    H146972   2.353   2.948   6.989 -0.8446 -1.4013 -0.3538
 6683TIP3    H246973   2.472   2.863   7.028  0.1395  0.2140  0.2723
 6684TIP3   OH246974   3.075   5.732   6.653  0.1287 -0.4201 -0.7063
 6684TIP3    H146975   3.000   5.675   6.670 -0.1021 -0.2893 -1.2752
 6684TIP3    H246976   3.141   5.703   6.715 -0.1932 -0.9174 -0.5897
 6685TIP3   OH246977   1.146   2.346   6.632 -0.3085 -0.1345 -0.2056
 6685TIP3    H146978   1.091   2.316   6.559 -1.2140  1.7388 -0.3496
 6685TIP3    H246979   1.112   2.301   6.708 -0.4748 -0.8056 -0.6657
 6686TIP3   OH246980   4.675   7.474   0.682 -0.1623  0.2187 -0.4818
 6686TIP3    H146981   4.707   7.440   0.598  0.7398 -0.8580  0.2682
 6686TIP3    H246982   4.755   7.488   0.733 -0.7773 -1.5538  1.0791
 6687TIP3   OH246983   6.742   8.348   6.811  0.3682  0.5483 -0.3445
 6687TIP3    H146984   6.803   8.348   6.737  1.4332 -2.5260  0.3926
 6687TIP3    H246985   6.785   8.403   6.877  2.5228 -1.5480  0.1622
 6688TIP3   OH246986   2.149   6.226   6.248  0.1008 -0.0659  0.3578
 6688TIP3    H146987   2.132   6.133   6.260  0.3329 -0.3341 -1.1730
 6688TIP3    H246988   2.216   6.229   6.180 -1.7542  1.2684 -1.5220
 6689TIP3   OH246989   3.178   5.570   6.847  0.1449 -0.0967 -0.1365
 6689TIP3    H146990   3.272   5.568   6.830 -0.0171  0.0578 -1.0787
 6689TIP3    H246991   3.171   5.606   6.936  0.9840 -0.5063  0.1135
 6690TIP3   OH246992   1.975   2.425   6.856 -0.0759  0.3948 -0.0563
 6690TIP3    H146993   1.898   2.397   6.905  0.2383 -0.1790  0.1306
 6690TIP3    H246994   2.034   2.460   6.923  0.3095 -0.2867 -0.0286
 6691TIP3   OH246995   7.668   8.412   1.545  0.1670 -0.2011  0.4020
 6691TIP3    H146996   7.669   8.505   1.521 -0.8916 -0.5908 -1.2654
 6691TIP3    H246997   7.730   8.371   1.485  0.0975 -0.6850  0.6549
 6692TIP3   OH246998   6.916   6.128   0.450  0.5407  0.3796 -0.5765
 6692TIP3    H146999   6.962   6.179   0.517  0.7079 -0.2545 -0.1962
 6692TIP3    H247000   6.828   6.166   0.447 -0.1414 -0.8719  1.4976
 6693TIP3   OH247001   2.967   4.575   0.775  0.4135  0.2553 -0.1500
 6693TIP3    H147002   2.963   4.632   0.699 -1.1232 -3.5883 -3.2968
 6693TIP3    H247003   3.048   4.524   0.763 -0.5585 -1.3794 -0.1126
 6694TIP3   OH247004   4.461   0.588   5.612 -0.0863  0.2394  0.5408
 6694TIP3    H147005   4.494   0.521   5.552 -0.6887  0.3218  0.1005
 6694TIP3    H247006   4.516   0.665   5.595 -0.5668  0.4130 -0.2677
 6695TIP3   OH247007   2.181   2.797   6.178 -0.6939 -0.1193 -0.2207
 6695TIP3    H147008   2.248   2.728   6.181 -0.0745  0.5014  0.8279
 6695TIP3    H247009   2.175   2.820   6.086 -0.7149 -1.3755 -0.5540
 6696TIP3   OH247010   3.368   6.931   5.499 -0.0062 -0.3524 -0.0854
 6696TIP3    H147011   3.277   6.910   5.518 -0.1083 -0.4414 -0.6455
 6696TIP3    H247012   3.365   7.018   5.459  0.2255 -0.0671  0.5031
 6697TIP3   OH247013   5.225   0.014   6.689 -0.0742  0.5041  0.2898
 6697TIP3    H147014   5.164   0.048   6.623  0.2194  1.9350  0.7031
 6697TIP3    H247015   5.224   0.081   6.758  0.1253 -0.6423  1.4300
 6698TIP3   OH247016   3.120   6.726   5.911  0.6998 -0.0271  0.0375
 6698TIP3    H147017   3.036   6.716   5.867  0.7817  2.6581 -0.8896
 6698TIP3    H247018   3.102   6.709   6.003 -0.2580 -2.0566 -0.4686
 6699TIP3   OH247019   7.913   2.623   0.911 -0.0134 -0.2209  0.1478
 6699TIP3    H147020   7.996   2.634   0.958  1.2245  0.5838 -2.0816
 6699TIP3    H247021   7.912   2.530   0.888  1.7003  0.2433 -2.1460
 6700TIP3   OH247022   0.451   0.098   6.713 -0.0197 -0.2465 -0.3592
 6700TIP3    H147023   0.489   0.043   6.644 -1.0275  0.7492 -1.7825
 6700TIP3    H247024   0.357   0.099   6.692  0.0321  2.4446 -0.7485
 6701TIP3   OH247025   1.810   6.520   6.482  0.6010  0.1695  0.2187
 6701TIP3    H147026   1.823   6.441   6.534  0.7241  0.2590  0.3244
 6701TIP3    H247027   1.716   6.526   6.471  0.4805  0.8010  1.4505
 6702TIP3   OH247028   4.285   4.494   5.728 -0.0241  0.1103  1.0395
 6702TIP3    H147029   4.289   4.404   5.762  0.5321  0.8024  2.8956
 6702TIP3    H247030   4.279   4.549   5.806 -0.6873  1.6831 -0.0885
 6703TIP3   OH247031   3.769   8.208   1.046  0.3961 -0.6062 -0.6874
 6703TIP3    H147032   3.686   8.254   1.052  0.7785  0.1911 -1.3561
 6703TIP3    H247033   3.809   8.219   1.133 -0.4261 -1.4956 -0.1665
 6704TIP3   OH247034   6.338   0.974   1.359 -0.2403  0.0548  0.3516
 6704TIP3    H147035   6.297   0.894   1.324  1.2414 -0.4173 -0.3930
 6704TIP3    H247036   6.422   0.979   1.315  1.2486  0.0815  2.9893
 6705TIP3   OH247037   5.792   3.910   5.425  0.2996  0.3407  0.0262
 6705TIP3    H147038   5.746   3.966   5.363 -0.0527 -0.2221 -0.2250
 6705TIP3    H247039   5.785   3.822   5.388 -0.2076 -0.0505  1.0416
 6706TIP3   OH247040   7.299   8.260   0.546  0.3799  0.1409  0.1437
 6706TIP3    H147041   7.265   8.196   0.608  0.7348 -0.9844 -0.7837
 6706TIP3    H247042   7.307   8.212   0.464  0.5243  1.4256 -0.6192
 6707TIP3   OH247043   4.349   5.171   0.265 -0.2136  0.1311 -0.1831
 6707TIP3    H147044   4.306   5.122   0.335  0.8239  0.6445  0.8386
 6707TIP3    H247045   4.293   5.247   0.251 -1.2608 -0.7502 -1.0392
 6708TIP3   OH247046   6.867   8.314   2.081  0.0832 -0.0633  0.0621
 6708TIP3    H147047   6.957   8.292   2.102  0.6637  1.0447 -1.1627
 6708TIP3    H247048   6.862   8.409   2.091 -0.4221  0.1322 -1.7172
 6709TIP3   OH247049   4.764   4.301   6.550  0.1437 -0.4538 -0.6860
 6709TIP3    H147050   4.708   4.306   6.473 -0.0132 -1.8638 -0.6895
 6709TIP3    H247051   4.728   4.366   6.610  0.0049  0.3536 -1.6143
 6710TIP3   OH247052   0.465   3.253   1.115 -0.2289 -0.1690  0.1402
 6710TIP3    H147053   0.558   3.232   1.123 -0.0273  0.9004  0.7494
 6710TIP3    H247054   0.438   3.209   1.035  1.0405  0.2826 -0.5715
 6711TIP3   OH247055   6.125   4.487   1.850  0.3658  0.1659 -0.1485
 6711TIP3    H147056   6.165   4.401   1.838  1.0189  0.3263  0.7983
 6711TIP3    H247057   6.040   4.470   1.888  0.6923 -0.0427  0.4953
 6712TIP3   OH247058   8.311   0.286   6.276 -0.2435  0.0855  0.4216
 6712TIP3    H147059   8.245   0.323   6.217 -0.0976  0.6759  0.6275
 6712TIP3    H247060   8.363   0.228   6.220 -1.6866 -1.3609  0.4986
 6713TIP3   OH247061   3.649   0.209   5.789 -0.2311 -0.3627 -0.5038
 6713TIP3    H147062   3.715   0.155   5.746 -0.7206 -1.3446 -0.0508
 6713TIP3    H247063   3.668   0.298   5.759  0.1565 -0.8629 -1.8196
 6714TIP3   OH247064   0.501   3.798   5.909  0.4753 -0.0221  0.2335
 6714TIP3    H147065   0.406   3.796   5.920  0.4090  2.2347  0.4969
 6714TIP3    H247066   0.535   3.753   5.986 -0.3511 -1.3172 -0.1185
 6715TIP3   OH247067   8.319   2.689   4.980  0.1334 -0.0362  0.1594
 6715TIP3    H147068   8.311   2.686   5.075  0.0539  0.0537  0.1560
 6715TIP3    H247069   8.412   2.710   4.965 -0.1164  1.2472  0.2465
 6716TIP3   OH247070   6.024   2.040   5.345  0.1541 -1.0019  0.4672
 6716TIP3    H147071   6.119   2.033   5.339  0.1407 -0.8034 -0.0137
 6716TIP3    H247072   6.001   2.109   5.283 -0.2890 -0.9254  0.7083
 6717TIP3   OH247073   4.690   0.925   1.062  0.1664 -0.4565  0.4939
 6717TIP3    H147074   4.609   0.919   1.012  0.5753 -2.5821 -0.0265
 6717TIP3    H247075   4.681   1.005   1.114 -1.0647  0.8237 -1.5591
 6718TIP3   OH247076   1.101   4.097   4.933 -0.3179  0.7529 -0.3849
 6718TIP3    H147077   1.163   4.079   4.862 -0.2383 -0.2277 -0.0743
 6718TIP3    H247078   1.069   4.011   4.960 -0.5622  1.1370  0.5838
 6719TIP3   OH247079   7.265   0.412   1.028 -0.1668 -0.0412  0.0434
 6719TIP3    H147080   7.340   0.386   1.082 -0.2577  0.1365  0.2613
 6719TIP3    H247081   7.204   0.451   1.090 -0.5371 -0.3914 -0.1037
 6720TIP3   OH247082   8.105   3.124   5.392  0.1025 -0.6770  0.3380
 6720TIP3    H147083   8.129   3.135   5.300 -0.8972  3.2024  0.3720
 6720TIP3    H247084   8.010   3.132   5.394  0.1791  0.2468  1.7629
 6721TIP3   OH247085   0.114   6.089   6.543 -0.1942  0.0126 -0.0031
 6721TIP3    H147086   0.083   6.169   6.499  1.0340 -0.2001 -1.3472
 6721TIP3    H247087   0.048   6.024   6.524 -0.1767  0.1903 -0.7126
 6722TIP3   OH247088   0.723   1.297   6.104 -0.2492  0.1857  0.3875
 6722TIP3    H147089   0.783   1.266   6.172  0.4733  0.5495 -0.0715
 6722TIP3    H247090   0.635   1.278   6.138  0.0770  0.9680  1.7099
 6723TIP3   OH247091   8.171   5.684   1.052  0.1532 -0.3492  0.0356
 6723TIP3    H147092   8.106   5.624   1.089 -0.0270  0.1509  0.5519
 6723TIP3    H247093   8.215   5.633   0.984  1.0513 -1.6044  1.4656
 6724TIP3   OH247094   5.777   8.069   5.894  0.1778  0.1017 -0.6644
 6724TIP3    H147095   5.707   8.121   5.936 -2.4872 -4.0000  0.5352
 6724TIP3    H247096   5.832   8.041   5.967  0.2112 -0.6382 -0.9750
 6725TIP3   OH247097   1.519   3.885   5.391  0.5837  0.4161  0.6741
 6725TIP3    H147098   1.501   3.936   5.311  0.7718 -1.4373 -0.6234
 6725TIP3    H247099   1.433   3.873   5.431  0.4876  1.3980  0.7833
 6726TIP3   OH247100   2.757   3.700   0.193  0.4049  0.1119 -0.3549
 6726TIP3    H147101   2.815   3.748   0.133 -0.4044  1.3819 -0.1512
 6726TIP3    H247102   2.809   3.688   0.272  0.4173  1.2059 -0.1909
 6727TIP3   OH247103   4.165   4.705   6.932  0.2388 -0.3238 -0.6773
 6727TIP3    H147104   4.156   4.631   6.871 -3.1910 -1.7526  1.2536
 6727TIP3    H247105   4.177   4.664   7.018  0.5604  1.4621  0.1740
 6728TIP3   OH247106   3.004   6.426   6.344 -0.1633 -0.5195  0.2213
 6728TIP3    H147107   3.080   6.390   6.390  1.1740 -0.0449 -1.4995
 6728TIP3    H247108   2.986   6.509   6.388 -0.1306 -0.9627  1.0817
 6729TIP3   OH247109   8.087   4.301   1.116 -0.0531  0.9540  0.8099
 6729TIP3    H147110   8.116   4.221   1.159 -1.7748  0.3731  0.9659
 6729TIP3    H247111   8.137   4.371   1.158 -0.3715  0.2221  2.4892
 6730TIP3   OH247112   5.333   3.539   6.340  0.2393 -0.2458  0.0504
 6730TIP3    H147113   5.287   3.466   6.297 -0.6671  1.3391 -1.8221
 6730TIP3    H247114   5.351   3.601   6.269 -0.1973  1.9763  1.7735
 6731TIP3   OH247115   6.691   1.347   0.297 -0.2719  0.0412  0.1316
 6731TIP3    H147116   6.747   1.420   0.271 -0.4276  0.2803  0.4667
 6731TIP3    H247117   6.611   1.388   0.330  0.0917 -0.2350  1.4058
 6732TIP3   OH247118   3.610   1.655   0.247 -0.8511 -0.7024 -0.0977
 6732TIP3    H147119   3.591   1.739   0.204 -0.5236  0.8064  2.5039
 6732TIP3    H247120   3.704   1.657   0.265 -0.8038 -1.7242 -0.1862
 6733TIP3   OH247121   5.290   5.564   7.024  0.1947  0.0370  0.1604
 6733TIP3    H147122   5.346   5.545   0.028 -1.0323 -3.0164  0.4232
 6733TIP3    H247123   5.350   5.598   6.957  1.5024  1.5726  2.0159
 6734TIP3   OH247124   1.831   3.894   6.143 -0.4320  0.0734 -0.4023
 6734TIP3    H147125   1.889   3.823   6.169  0.8196  1.0040 -0.5774
 6734TIP3    H247126   1.784   3.860   6.066  0.5862 -0.3638 -0.8476
 6735TIP3   OH247127   1.502   3.184   0.768 -0.3285  0.0457  0.2281
 6735TIP3    H147128   1.443   3.238   0.819 -0.2386  0.0013  0.3785
 6735TIP3    H247129   1.566   3.245   0.731 -0.2155  0.0386  0.4135
 6736TIP3   OH247130   6.937   6.767   5.356 -0.5606  0.1924  0.0712
 6736TIP3    H147131   6.964   6.774   5.265 -2.3515  0.6146 -0.4764
 6736TIP3    H247132   7.017   6.746   5.404  0.2849 -0.7963 -1.6900
 6737TIP3   OH247133   6.800   1.446   6.547 -0.0776 -0.2824 -0.2996
 6737TIP3    H147134   6.780   1.491   6.629  0.4718  0.2668 -0.4592
 6737TIP3    H247135   6.877   1.393   6.567 -0.6390 -1.0594 -0.1503
 6738TIP3   OH247136   2.801   2.277   0.805 -0.2338  0.2794 -0.1102
 6738TIP3    H147137   2.854   2.202   0.778  0.3784  0.5752  0.2384
 6738TIP3    H247138   2.830   2.295   0.894 -1.0102  0.3814  0.1340
 6739TIP3   OH247139   1.739   3.718   0.585 -0.1009  0.3535  0.3321
 6739TIP3    H147140   1.652   3.751   0.606 -0.2129  0.0042  0.4252
 6739TIP3    H247141   1.788   3.729   0.666  0.1479  1.2026  0.0769
 6740TIP3   OH247142   7.117   4.655   6.816  0.9107 -0.2917 -0.2684
 6740TIP3    H147143   7.123   4.566   6.781  2.4726  0.1874 -1.3205
 6740TIP3    H247144   7.207   4.681   6.831  0.3753  0.2086  2.5391
 6741TIP3   OH247145   7.580   0.649   6.061  0.3249  0.6396 -0.0897
 6741TIP3    H147146   7.545   0.725   6.015 -2.4560  0.2504  1.1902
 6741TIP3    H247147   7.525   0.576   6.033  0.5756 -0.1831  1.4256
 6742TIP3   OH247148   7.929   5.279   6.520  0.3415  0.6320  0.2392
 6742TIP3    H147149   7.980   5.361   6.519  0.9039  0.2814 -0.9254
 6742TIP3    H247150   7.840   5.307   6.502  0.7011  0.9017 -1.2592
 6743TIP3   OH247151   2.552   2.014   0.939 -0.1331 -0.5085 -0.0029
 6743TIP3    H147152   2.527   2.094   0.893  0.8701  0.5377  1.1917
 6743TIP3    H247153   2.647   2.008   0.928 -0.0985 -1.1488  0.5124
 6744TIP3   OH247154   5.402   0.097   0.826 -0.0167 -0.0015  0.0012
 6744TIP3    H147155   5.477   0.135   0.870 -0.5043  2.6638 -1.2774
 6744TIP3    H247156   5.438   0.053   0.750  0.3224  0.7572 -0.2848
 6745TIP3   OH247157   5.899   6.240   1.751 -0.1846 -0.8813 -0.2584
 6745TIP3    H147158   5.873   6.148   1.745  1.3197 -1.2924 -1.1750
 6745TIP3    H247159   5.886   6.274   1.662  0.7468 -0.6649 -0.3315
 6746TIP3   OH247160   8.255   8.292   0.597 -0.3187 -0.3278  0.6513
 6746TIP3    H147161   8.264   8.385   0.576 -1.5607  0.0214  1.4909
 6746TIP3    H247162   8.291   8.246   0.521 -0.8730  0.8494 -0.3720
 6747TIP3   OH247163   6.702   0.838   0.893 -0.2931 -0.0061  0.1487
 6747TIP3    H147164   6.719   0.776   0.822  2.7157 -0.8743  1.4600
 6747TIP3    H247165   6.783   0.889   0.900 -1.3913  1.6709  1.4231
 6748TIP3   OH247166   3.545   2.528   0.949 -0.1173  0.1576  0.9645
 6748TIP3    H147167   3.451   2.509   0.940 -0.3761  1.8809 -0.6807
 6748TIP3    H247168   3.571   2.482   1.029 -2.6373  0.5470  2.1229
 6749TIP3   OH247169   7.500   5.235   2.176 -0.9164 -0.5729 -0.1318
 6749TIP3    H147170   7.553   5.284   2.113 -2.0890  0.4245 -0.3667
 6749TIP3    H247171   7.411   5.266   2.163 -1.3608 -1.1500  1.2655
 6750TIP3   OH247172   7.952   4.194   6.475 -0.3497  0.3258  0.1608
 6750TIP3    H147173   8.030   4.143   6.497 -1.0786 -2.0496 -2.1885
 6750TIP3    H247174   7.880   4.147   6.516 -0.8375  0.7804 -0.1523
 6751TIP3   OH247175   3.878   1.347   0.173 -0.0212  0.5587  0.0327
 6751TIP3    H147176   3.881   1.434   0.212  0.8648 -0.5790  2.7416
 6751TIP3    H247177   3.819   1.297   0.230  0.4127 -0.9192 -0.7565
 6752TIP3   OH247178   6.058   7.483   5.672 -0.5239  0.5622 -0.4183
 6752TIP3    H147179   6.066   7.522   5.585 -2.8583 -0.4565 -1.1757
 6752TIP3    H247180   5.970   7.506   5.701 -0.9141 -1.6651  0.3488
 6753TIP3   OH247181   1.652   8.502   5.370  0.4629  0.1381  0.0008
 6753TIP3    H147182   1.738   8.473   5.402  0.2771 -0.8720 -0.3683
 6753TIP3    H247183   1.597   8.505   5.449  0.9048  1.0768  0.2829
 6754TIP3   OH247184   7.601   2.806   6.468  0.1617 -0.0169 -0.7762
 6754TIP3    H147185   7.683   2.841   6.501  0.2667  0.1614 -1.2116
 6754TIP3    H247186   7.536   2.874   6.485  0.0315 -0.3116 -0.0986
 6755TIP3   OH247187   2.720   2.959   0.267 -0.6858 -0.0605  0.5517
 6755TIP3    H147188   2.707   2.930   0.357 -1.7930  0.8973  0.7307
 6755TIP3    H247189   2.667   3.039   0.260 -0.5776 -0.0899 -0.9326
 6756TIP3   OH247190   2.343   3.861   6.296 -0.0549 -0.7929 -0.4706
 6756TIP3    H147191   2.313   3.942   6.337 -1.0419 -1.7150  0.6988
 6756TIP3    H247192   2.437   3.872   6.287 -0.0842  0.2012  0.3256
 6757TIP3   OH247193   0.098   1.923   6.652  0.0789  0.1959  0.6064
 6757TIP3    H147194   0.051   1.855   6.700 -0.9685  1.2193  1.0843
 6757TIP3    H247195   0.051   2.004   6.672  0.8400  0.9632 -0.5370
 6758TIP3   OH247196   1.338   2.761   1.581  0.3288  0.0275 -0.6029
 6758TIP3    H147197   1.280   2.819   1.531 -0.3156 -0.8992 -0.9562
 6758TIP3    H247198   1.308   2.770   1.671  0.5995  0.6603 -0.5687
 6759TIP3   OH247199   2.314   8.068   5.984 -0.1955 -0.1638 -0.5353
 6759TIP3    H147200   2.380   8.003   6.010 -0.6659  0.0368  1.2410
 6759TIP3    H247201   2.344   8.150   6.023 -0.9047  0.1696 -0.6808
 6760TIP3   OH247202   3.915   4.449   0.417  1.0319 -0.3243 -0.4786
 6760TIP3    H147203   3.924   4.422   0.509 -0.2792 -2.0300 -0.7958
 6760TIP3    H247204   3.978   4.395   0.370  1.7264  0.5749 -0.5978
 6761TIP3   OH247205   8.173   7.951   5.038  0.2818 -0.1500 -0.3113
 6761TIP3    H147206   8.138   7.892   4.971  0.1209 -1.8234  1.1623
 6761TIP3    H247207   8.105   7.953   5.106  2.6629 -3.2690  2.5088
 6762TIP3   OH247208   5.893   4.320   6.118  0.0191  0.1216 -0.4824
 6762TIP3    H147209   5.858   4.346   6.203  1.9984  2.4933 -0.2956
 6762TIP3    H247210   5.835   4.362   6.054 -1.6556 -1.9120 -0.4157
 6763TIP3   OH247211   4.466   7.163   1.956 -0.6427  0.0407  0.4474
 6763TIP3    H147212   4.411   7.231   1.994 -0.3053 -0.8254  2.6844
 6763TIP3    H247213   4.413   7.084   1.961 -0.9799  0.0364 -1.9963
 6764TIP3   OH247214   5.507   6.268   0.006 -0.4667  0.3560 -0.7055
 6764TIP3    H147215   5.428   6.297   7.031 -1.0412 -0.2698 -0.1379
 6764TIP3    H247216   5.475   6.211   0.076  0.3694  1.3317  0.5304
 6765TIP3   OH247217   4.097   0.741   0.392  0.3562  0.0219  0.3239
 6765TIP3    H147218   4.191   0.731   0.377  0.7183  3.4073 -0.5466
 6765TIP3    H247219   4.057   0.717   0.309  0.6275  0.2888  0.1128
 6766TIP3   OH247220   6.234   3.019   0.863 -0.3003  0.4738 -0.5117
 6766TIP3    H147221   6.197   3.018   0.775 -1.0686  0.4026 -0.1962
 6766TIP3    H247222   6.165   2.982   0.919  0.4765 -0.2411  0.0048
 6767TIP3   OH247223   5.682   5.793   6.278  0.3680 -0.6775 -0.4052
 6767TIP3    H147224   5.768   5.811   6.241 -0.2231  0.7687 -1.1874
 6767TIP3    H247225   5.642   5.880   6.288 -0.5018 -1.2154  1.1853
 6768TIP3   OH247226   1.038   4.303   1.621 -0.2574 -0.1002  0.2816
 6768TIP3    H147227   1.026   4.210   1.642  1.7328 -0.8656 -1.5579
 6768TIP3    H247228   0.954   4.343   1.642 -1.7731 -2.6376 -0.3990
 6769TIP3   OH247229   3.967   6.984   0.953 -0.0940 -0.4081  0.4276
 6769TIP3    H147230   3.931   7.046   1.016 -0.5614 -0.7951  0.5492
 6769TIP3    H247231   4.051   6.957   0.990 -0.5276 -0.8998  1.0631
 6770TIP3   OH247232   5.794   5.225   1.337  0.5497 -0.3092  0.1896
 6770TIP3    H147233   5.782   5.206   1.430  1.3112 -0.0094  0.3606
 6770TIP3    H247234   5.745   5.306   1.322 -1.0131 -1.2715 -0.0794
 6771TIP3   OH247235   2.363   3.609   6.059 -0.3322 -0.2349 -0.5248
 6771TIP3    H147236   2.351   3.695   6.018 -1.4357 -0.3894 -0.5401
 6771TIP3    H247237   2.446   3.578   6.023  1.3686  1.8184  1.2916
 6772TIP3   OH247238   0.781   6.925   6.169  0.1611 -0.0501  1.1718
 6772TIP3    H147239   0.875   6.910   6.157 -0.2466 -1.4423 -0.7453
 6772TIP3    H247240   0.760   6.883   6.252  1.3662  1.0704  2.0863
 6773TIP3   OH247241   2.171   5.777   6.678 -0.0234 -0.2944  0.1337
 6773TIP3    H147242   2.183   5.862   6.720 -1.0438 -0.4378  0.7644
 6773TIP3    H247243   2.240   5.772   6.613  0.4455  0.7443  0.5295
 6774TIP3   OH247244   3.755   4.022   0.222  0.2134 -0.5346 -0.0236
 6774TIP3    H147245   3.795   4.076   0.290 -0.6115  0.9065 -0.6278
 6774TIP3    H247246   3.823   3.958   0.199  0.5605 -0.9669  2.0125
 6775TIP3   OH247247   2.771   3.748   6.074 -0.2103 -0.4650  0.6413
 6775TIP3    H147248   2.702   3.784   6.130  0.8574 -0.3963  1.9456
 6775TIP3    H247249   2.735   3.665   6.043 -1.5875  0.3785 -0.1745
 6776TIP3   OH247250   0.084   4.836   0.244  0.3824  0.4710  0.1078
 6776TIP3    H147251   0.149   4.822   0.175 -0.4601  1.8591 -1.0415
 6776TIP3    H247252   0.064   4.749   0.277  0.9036 -0.2256 -1.3382
 6777TIP3   OH247253   5.148   7.079   0.623  0.1566  0.5986 -0.3118
 6777TIP3    H147254   5.134   7.119   0.538  0.4922  0.2267 -0.5460
 6777TIP3    H247255   5.121   7.145   0.686 -0.3752  0.7632 -0.7134
 6778TIP3   OH247256   2.814   3.662   1.169 -0.0789 -0.3785 -0.4020
 6778TIP3    H147257   2.736   3.703   1.207  1.6571  0.1682  2.9618
 6778TIP3    H247258   2.802   3.568   1.185 -0.3911 -0.3735 -0.6034
 6779TIP3   OH247259   0.404   4.374   0.853  0.4618 -0.0720  0.3294
 6779TIP3    H147260   0.413   4.295   0.800 -1.3986 -0.2859  0.2647
 6779TIP3    H247261   0.355   4.435   0.797  0.6365  0.6081  0.8970
 6780TIP3   OH247262   1.215   1.987   0.755 -0.1264  0.1148 -0.3585
 6780TIP3    H147263   1.133   2.033   0.737 -0.3913 -0.0351  0.3964
 6780TIP3    H247264   1.255   2.036   0.827 -0.6042 -1.0155  0.7283
 6781TIP3   OH247265   1.412   0.916   0.915 -0.1157 -0.0883  0.3189
 6781TIP3    H147266   1.360   0.984   0.957 -0.5510 -1.1878  1.6281
 6781TIP3    H247267   1.487   0.904   0.974 -0.5460 -1.3961  0.6491
 6782TIP3   OH247268   7.309   1.595   6.154 -0.0371 -0.0844  0.2445
 6782TIP3    H147269   7.364   1.580   6.077  0.0560 -0.2756  0.3485
 6782TIP3    H247270   7.291   1.507   6.188  2.2247  0.0843  2.0752
 6783TIP3   OH247271   4.383   1.771   6.264 -0.1882  0.2762  0.1670
 6783TIP3    H147272   4.316   1.816   6.315 -0.6490 -0.8832  0.6201
 6783TIP3    H247273   4.334   1.714   6.205  0.3861 -0.5442  0.4611
 6784TIP3   OH247274   3.434   3.643   5.302  0.1850  0.2865 -0.1531
 6784TIP3    H147275   3.506   3.634   5.365  0.6986  0.3310 -0.7257
 6784TIP3    H247276   3.420   3.555   5.268 -0.5837  0.1290  0.5497
 6785TIP3   OH247277   6.242   5.393   6.384  0.3348 -0.5053  0.2065
 6785TIP3    H147278   6.180   5.465   6.390  1.5457  0.4750  1.9191
 6785TIP3    H247279   6.189   5.314   6.396 -0.9289  0.0817 -1.1537
 6786TIP3   OH247280   4.790   3.897   1.883  0.4286  0.1002 -0.1036
 6786TIP3    H147281   4.770   3.812   1.845 -0.9607 -0.7652  2.3553
 6786TIP3    H247282   4.708   3.945   1.880  0.9618  1.0203 -0.5768
 6787TIP3   OH247283   1.789   7.676   6.222  0.1362 -0.3241 -0.3204
 6787TIP3    H147284   1.845   7.753   6.220  0.3378 -0.4578  0.0994
 6787TIP3    H247285   1.848   7.603   6.208  0.0438 -0.4533 -0.0465
 6788TIP3   OH247286   1.875   4.054   6.923  0.0024 -0.4841  0.3546
 6788TIP3    H147287   1.846   4.057   7.014  0.2900 -1.5301  0.4945
 6788TIP3    H247288   1.961   4.013   6.927 -0.9714 -2.7368 -0.5909
 6789TIP3   OH247289   5.185   5.305   0.956 -0.6176  0.8618  0.0234
 6789TIP3    H147290   5.165   5.373   0.891  2.9076  0.2110 -2.0089
 6789TIP3    H247291   5.120   5.236   0.938 -0.8937  1.4810 -1.5707
 6790TIP3   OH247292   3.800   4.370   6.370 -0.0104 -0.3478  0.0644
 6790TIP3    H147293   3.808   4.428   6.446  1.3544  2.1412 -1.7936
 6790TIP3    H247294   3.729   4.408   6.318 -0.2072 -1.3409 -0.4104
 6791TIP3   OH247295   3.285   2.203   0.662 -0.3026  0.0221 -0.3398
 6791TIP3    H147296   3.198   2.164   0.672 -0.4066  0.5065  0.8394
 6791TIP3    H247297   3.274   2.295   0.688  0.4815  0.1894 -0.5512
 6792TIP3   OH247298   4.855   7.153   5.805  0.7050 -0.3847 -0.2384
 6792TIP3    H147299   4.788   7.121   5.745 -1.2763  1.5592  0.7812
 6792TIP3    H247300   4.915   7.203   5.749 -0.1409 -0.0320 -0.8497
 6793TIP3   OH247301   3.956   7.766   5.658  0.1828  0.1826 -0.6202
 6793TIP3    H147302   3.972   7.687   5.606  0.9931  0.4517 -0.7867
 6793TIP3    H247303   3.861   7.778   5.653  0.2120  0.0718 -1.8398
 6794TIP3   OH247304   0.066   2.646   6.689 -0.2017  0.4645 -0.5712
 6794TIP3    H147305   0.148   2.663   6.735  0.1992  0.9241 -1.4474
 6794TIP3    H247306   0.059   2.551   6.687 -0.2366  0.4312  0.4503
 6795TIP3   OH247307   5.941   3.439   0.999  0.3851 -0.4223  0.3250
 6795TIP3    H147308   6.009   3.506   0.995  0.7257 -0.7882 -0.3070
 6795TIP3    H247309   5.859   3.487   1.000  0.6125 -0.0013 -0.5271
 6796TIP3   OH247310   5.403   1.519   0.005  0.0460 -0.3813 -0.6510
 6796TIP3    H147311   5.467   1.449   7.068 -0.2375 -0.6836 -0.3075
 6796TIP3    H247312   5.384   1.545   6.986  0.1851 -0.7122 -0.7768
 6797TIP3   OH247313   2.921   1.671   0.361  0.0685  0.0764  0.4851
 6797TIP3    H147314   2.941   1.668   0.455  1.7735  0.1629  0.1653
 6797TIP3    H247315   3.003   1.647   0.319 -0.1654  1.7506 -1.0370
 6798TIP3   OH247316   5.844   3.873   0.993 -0.2592  1.1731  0.2377
 6798TIP3    H147317   5.872   3.965   0.994 -0.2552  1.2482 -2.0422
 6798TIP3    H247318   5.778   3.869   0.923  2.5646 -1.2540 -2.5645
 6799TIP3   OH247319   1.388   0.145   1.654 -0.4242  0.0110 -0.0146
 6799TIP3    H147320   1.332   0.198   1.597  0.1179  0.9175  0.2747
 6799TIP3    H247321   1.356   0.056   1.643 -1.0697  0.3351 -0.8541
 6800TIP3   OH247322   5.931   5.816   0.770  0.3386  0.1682 -0.4098
 6800TIP3    H147323   5.909   5.724   0.761 -3.0002  0.6561  1.1760
 6800TIP3    H247324   5.903   5.855   0.687 -1.0130  0.1380  0.0124
 6801TIP3   OH247325   5.206   3.006   6.677 -0.5268 -0.2099  1.1197
 6801TIP3    H147326   5.128   2.951   6.690 -1.0312 -0.2426 -1.5076
 6801TIP3    H247327   5.171   3.095   6.669 -0.0311  0.0916  2.1358
 6802TIP3   OH247328   1.695   0.980   6.245  0.5695  0.2275  0.0650
 6802TIP3    H147329   1.665   1.009   6.158  0.7738 -0.5620 -0.2777
 6802TIP3    H247330   1.617   0.946   6.287  0.8725 -1.6122 -0.7397
 6803TIP3   OH247331   5.357   3.559   6.005  0.1688  0.3594  0.2950
 6803TIP3    H147332   5.450   3.554   5.987  0.1123 -3.1560  0.3945
 6803TIP3    H247333   5.316   3.573   5.920  0.7519  3.3904  0.4157
 6804TIP3   OH247334   6.186   4.442   1.095 -0.6438 -0.3145 -0.1876
 6804TIP3    H147335   6.131   4.403   1.163 -0.6008  2.2790  1.4810
 6804TIP3    H247336   6.276   4.429   1.126 -0.6505  2.9397  1.7258
 6805TIP3   OH247337   5.604   4.212   6.815  0.1327 -0.3002  0.1540
 6805TIP3    H147338   5.515   4.226   6.783  0.6612  1.1789 -0.8042
 6805TIP3    H247339   5.607   4.259   6.899  0.3736  0.8152 -0.4644
 6806TIP3   OH247340   0.321   6.578   0.710  0.2510  0.0848  1.0965
 6806TIP3    H147341   0.397   6.535   0.749 -0.8833 -2.2252  0.9859
 6806TIP3    H247342   0.350   6.605   0.623  0.5012 -2.6163  0.2289
 6807TIP3   OH247343   6.062   1.176   6.266  0.0612  0.1949  0.2169
 6807TIP3    H147344   6.001   1.232   6.218  0.1878  1.3226  1.3226
 6807TIP3    H247345   6.011   1.145   6.342  0.1773 -0.7303 -0.0708
 6808TIP3   OH247346   2.378   7.440   0.431  0.3618 -0.1983  0.2536
 6808TIP3    H147347   2.400   7.497   0.358  0.0221 -0.3616  0.0185
 6808TIP3    H247348   2.393   7.351   0.398  1.5951 -0.2351  0.8505
 6809TIP3   OH247349   8.145   3.944   0.593  0.7097  0.1819  0.0702
 6809TIP3    H147350   8.164   3.950   0.499 -0.5008 -3.7220 -0.6207
 6809TIP3    H247351   8.211   3.882   0.626 -1.4800 -1.9320  0.7513
 6810TIP3   OH247352   0.918   1.792   1.480 -0.0620 -0.3502  0.5809
 6810TIP3    H147353   0.852   1.848   1.438  1.4303 -0.3208 -1.8938
 6810TIP3    H247354   1.000   1.838   1.468  0.8530 -1.8418  0.8504
 6811TIP3   OH247355   1.146   8.000   6.999 -0.2478 -0.2003  0.3693
 6811TIP3    H147356   1.103   8.083   7.019 -0.2288 -0.1986  0.4037
 6811TIP3    H247357   1.161   8.002   6.905 -0.8443 -0.4535  0.2639
 6812TIP3   OH247358   3.913   6.458   0.487  0.2886  0.2923 -0.3039
 6812TIP3    H147359   3.884   6.548   0.470 -0.4763 -0.3635 -2.9068
 6812TIP3    H247360   3.978   6.441   0.418 -2.0487 -2.2089 -2.0614
 6813TIP3   OH247361   7.394   1.602   0.567  0.5807  0.3601 -0.5651
 6813TIP3    H147362   7.439   1.587   0.484  1.4353 -0.2047 -0.0260
 6813TIP3    H247363   7.386   1.514   0.605  0.2917  0.6265 -0.0112
 6814TIP3   OH247364   5.458   5.161   0.577  0.5247 -0.1772  0.4896
 6814TIP3    H147365   5.431   5.225   0.644 -0.9556  0.1668 -0.3926
 6814TIP3    H247366   5.408   5.186   0.499  1.3783 -1.2554 -0.4294
 6815TIP3   OH247367   4.075   4.548   0.857  0.6556  0.6107 -0.4515
 6815TIP3    H147368   4.045   4.619   0.913  0.9920  0.2170  0.2461
 6815TIP3    H247369   4.007   4.481   0.863  0.8511  0.4285 -0.2406
 6816TIP3   OH247370   4.886   0.132   1.533  0.2555 -0.1830 -0.5295
 6816TIP3    H147371   4.945   0.058   1.525 -1.4913 -1.5392 -1.5897
 6816TIP3    H247372   4.846   0.123   1.619 -0.3135 -0.7694 -0.8509
 6817TIP3   OH247373   0.179   3.193   6.440 -0.5367 -0.2618  0.2948
 6817TIP3    H147374   0.234   3.134   6.491 -1.4653 -1.7048 -0.3036
 6817TIP3    H247375   0.139   3.250   6.506 -1.5003 -1.9034  1.2077
 6818TIP3   OH247376   4.814   3.103   0.911 -0.1742 -0.5707  0.0635
 6818TIP3    H147377   4.831   3.031   0.850 -1.3045  0.6729 -1.8319
 6818TIP3    H247378   4.761   3.063   0.980 -1.0530 -1.5132 -1.1069
 6819TIP3   OH247379   8.045   7.990   6.496 -0.3309  0.0833  0.4794
 6819TIP3    H147380   8.036   8.082   6.469  0.1406  0.2507  0.8911
 6819TIP3    H247381   8.130   7.963   6.461  0.2957  0.3021  1.7705
 6820TIP3   OH247382   2.306   7.033   6.187  0.1385  0.0816  0.0211
 6820TIP3    H147383   2.217   7.000   6.194 -1.5555  3.9220 -0.6672
 6820TIP3    H247384   2.319   7.084   6.267  1.1221  0.7289 -0.5294
 6821TIP3   OH247385   6.496   4.648   1.383  0.4007  0.0511  0.6827
 6821TIP3    H147386   6.429   4.579   1.391  0.3551 -0.3974 -2.4340
 6821TIP3    H247387   6.571   4.604   1.344  1.6906  1.0822  1.9012
 6822TIP3   OH247388   3.598   6.881   6.049 -0.3962  0.1547  0.2036
 6822TIP3    H147389   3.517   6.831   6.050 -1.3385  1.6211  0.7280
 6822TIP3    H247390   3.612   6.906   6.140  0.5203  0.1219  0.0810
 6823TIP3   OH247391   2.025   3.256   5.744  1.1961  0.2267  0.3008
 6823TIP3    H147392   2.025   3.225   5.654  1.9116  1.2221 -0.0651
 6823TIP3    H247393   2.086   3.198   5.789  0.6998 -0.3843  0.1930
 6824TIP3   OH247394   3.049   2.796   0.254 -0.4742  0.4354  0.1824
 6824TIP3    H147395   3.140   2.822   0.239  0.7986 -2.4271  2.0403
 6824TIP3    H247396   3.027   2.833   0.340 -1.7855  2.5668 -0.9735
 6825TIP3   OH247397   4.525   0.007   0.493 -0.1774  0.0702  0.3289
 6825TIP3    H147398   4.583   0.076   0.462 -3.9655  3.9873  0.9334
 6825TIP3    H247399   4.544   8.535   0.587 -1.2388  2.1196  0.7511
 6826TIP3   OH247400   6.237   5.750   6.244 -0.2500 -0.0033 -0.1422
 6826TIP3    H147401   6.316   5.743   6.297  0.5900  1.6050 -1.1136
 6826TIP3    H247402   6.243   5.835   6.201 -2.2183 -0.0970 -0.7347
 6827TIP3   OH247403   0.123   2.654   7.062  0.2427  0.0105  0.4834
 6827TIP3    H147404   0.184   2.683   6.993  1.8220 -2.3057  0.7723
 6827TIP3    H247405   0.077   2.580   7.023 -0.2990 -0.0900  1.2842
 6828TIP3   OH247406   6.521   5.749   6.255 -0.3228 -0.4025 -0.0601
 6828TIP3    H147407   6.513   5.729   6.162  1.8121  1.4687 -0.7384
 6828TIP3    H247408   6.538   5.665   6.297 -1.4267 -1.2895 -1.3028
 6829TIP3   OH247409   0.879   3.847   6.113 -0.7215  0.9701 -0.2273
 6829TIP3    H147410   0.924   3.924   6.149 -0.5057  0.4493  0.6475
 6829TIP3    H247411   0.918   3.835   6.026  3.1784 -1.2083  1.5311
 6830TIP3   OH247412   0.557   6.966   6.698  0.8940  0.0199  0.1663
 6830TIP3    H147413   0.592   7.053   6.683  1.8745 -0.1102  1.5448
 6830TIP3    H247414   0.587   6.915   6.624  1.8427  0.4358  0.2491
 6831TIP3   OH247415   8.521   0.700   6.096 -0.3431  0.4291  0.1440
 6831TIP3    H147416   0.054   0.766   6.114 -1.2429  1.3006  0.4602
 6831TIP3    H247417   8.447   0.727   6.150 -0.1264 -1.9781  1.8004
 6832TIP3   OH247418   4.938   6.190   6.618  0.4082 -0.2091 -0.0838
 6832TIP3    H147419   4.917   6.199   6.525 -2.8196 -0.3847  0.5393
 6832TIP3    H247420   4.970   6.277   6.643  0.4248  0.1062 -1.1379
 6833TIP3   OH247421   1.097   1.288   6.281  0.3114 -0.0289  0.1482
 6833TIP3    H147422   1.108   1.193   6.286 -1.2902 -0.2726 -0.1782
 6833TIP3    H247423   1.095   1.306   6.187 -1.4197  0.0144  0.1633
 6834TIP3   OH247424   1.427   5.446   1.118 -0.0726 -0.0141  0.5881
 6834TIP3    H147425   1.389   5.533   1.117  0.5192  0.2438  0.1519
 6834TIP3    H247426   1.354   5.387   1.099 -0.4816  0.3756  0.9417
 6835TIP3   OH247427   3.996   1.062   1.109  0.4236  0.5684 -0.1579
 6835TIP3    H147428   4.007   1.134   1.171 -0.7222  0.8686 -0.2887
 6835TIP3    H247429   3.933   1.094   1.045 -1.6992 -1.2269  0.9027
 6836TIP3   OH247430   1.981   3.305   0.132 -0.3600 -0.3404  0.3778
 6836TIP3    H147431   2.062   3.338   0.091 -0.7780 -0.2931 -0.4208
 6836TIP3    H247432   1.942   3.383   0.172 -1.3922  0.2054 -1.5853
 6837TIP3   OH247433   5.991   0.493   1.527  0.3282 -0.1383  0.0834
 6837TIP3    H147434   5.957   0.457   1.609  1.8993 -0.7944  0.4874
 6837TIP3    H247435   5.999   0.587   1.543  1.2927 -0.3537  0.9512
 6838TIP3   OH247436   6.991   2.672   5.912  0.4429  0.5875 -0.1849
 6838TIP3    H147437   6.977   2.745   5.852  1.9974  1.3445  0.3433
 6838TIP3    H247438   7.043   2.708   5.983  0.0274 -0.6988  0.8196
 6839TIP3   OH247439   0.925   4.163   0.012 -0.3371 -1.4709  0.5945
 6839TIP3    H147440   1.016   4.194   0.014 -0.0456 -2.3532  2.2041
 6839TIP3    H247441   0.889   4.203   7.004  0.8062  0.7004  1.0686
 6840TIP3   OH247442   3.175   6.346   5.842  0.1560  0.6192  0.2466
 6840TIP3    H147443   3.111   6.349   5.772  1.3884  0.5638 -0.9193
 6840TIP3    H247444   3.209   6.435   5.848 -0.4225  0.7850  1.2544
 6841TIP3   OH247445   8.194   2.448   0.878  0.0116  0.9687 -0.5255
 6841TIP3    H147446   8.278   2.409   0.905 -1.4176 -3.5951 -1.7715
 6841TIP3    H247447   8.215   2.497   0.798  1.8599  2.3610  0.7300
 6842TIP3   OH247448   2.540   1.968   0.601  0.4973  0.4843 -0.3632
 6842TIP3    H147449   2.629   1.944   0.625  0.2972 -1.0396 -1.0242
 6842TIP3    H247450   2.497   1.885   0.579 -1.1620  1.1495  0.1537
 6843TIP3   OH247451   4.694   6.471   0.686  0.4414  0.4146 -0.1092
 6843TIP3    H147452   4.730   6.473   0.597 -0.9875  0.5562 -0.7021
 6843TIP3    H247453   4.691   6.377   0.707  1.6728  0.4195  0.1897
 6844TIP3   OH247454   1.943   0.451   6.566  0.6870 -0.5951  0.1452
 6844TIP3    H147455   2.035   0.438   6.586  0.5425 -2.4844 -0.2677
 6844TIP3    H247456   1.899   0.374   6.600 -0.5097 -0.5345 -1.1443
 6845TIP3   OH247457   6.547   6.321   6.006 -0.2292 -0.3883  0.7822
 6845TIP3    H147458   6.531   6.381   6.079 -0.0254  0.9943 -0.2771
 6845TIP3    H247459   6.607   6.368   5.948  0.4179 -1.8637  0.2095
 6846TIP3   OH247460   5.601   7.531   5.774 -0.2816  0.2485 -0.2019
 6846TIP3    H147461   5.560   7.582   5.844 -0.1572 -0.6587  0.5438
 6846TIP3    H247462   5.683   7.577   5.756 -0.8747  1.1790 -0.6178
 6847TIP3   OH247463   7.648   6.424   1.179  0.0091  0.2426  0.1025
 6847TIP3    H147464   7.602   6.505   1.201 -0.0631  0.2791 -0.1837
 6847TIP3    H247465   7.580   6.369   1.139  0.3017  0.4373 -0.6659
 6848TIP3   OH247466   2.542   4.832   0.502 -0.3057  0.0114 -0.0938
 6848TIP3    H147467   2.505   4.770   0.565 -0.1184 -1.4894 -1.3934
 6848TIP3    H247468   2.621   4.865   0.545 -0.6769 -0.2648  0.8307
 6849TIP3   OH247469   1.029   2.235   6.852 -0.5114 -0.2349  0.3424
 6849TIP3    H147470   1.012   2.235   6.946 -1.1523  0.1945  0.2303
 6849TIP3    H247471   1.076   2.153   6.837 -0.1606 -0.1804  1.0767
 6850TIP3   OH247472   8.355   6.062   1.697 -0.8893  0.5542 -0.3417
 6850TIP3    H147473   8.346   6.014   1.615  2.4175 -0.0806 -0.4526
 6850TIP3    H247474   8.298   6.015   1.759 -1.5818 -0.4012 -1.6571
 6851TIP3   OH247475   0.674   1.746   0.022 -0.0340  0.1452  0.3176
 6851TIP3    H147476   0.629   1.825   7.063 -0.5710  0.4953  1.9406
 6851TIP3    H247477   0.699   1.700   7.012 -0.6213  1.4526 -0.6388
 6852TIP3   OH247478   8.312   5.400   5.814  0.5401  1.1806  0.2712
 6852TIP3    H147479   8.227   5.380   5.853  0.6536  1.6705  0.7847
 6852TIP3    H247480   8.299   5.486   5.773  0.5996  0.9505 -0.2300
 6853TIP3   OH247481   7.248   6.555   0.773 -0.1109 -0.2963 -0.4058
 6853TIP3    H147482   7.308   6.609   0.722  0.8610  0.7132  1.6703
 6853TIP3    H247483   7.284   6.557   0.862 -3.4154  0.6811  1.0743
 6854TIP3   OH247484   3.098   0.750   6.856  0.6891  0.1824 -0.2881
 6854TIP3    H147485   3.189   0.720   6.852  0.7742  0.5857 -3.3367
 6854TIP3    H247486   3.050   0.690   6.799 -0.9551  0.1133  1.0925
 6855TIP3   OH247487   0.479   1.762   6.439  0.1729  0.4672  0.2844
 6855TIP3    H147488   0.531   1.694   6.396  0.1240 -1.0825  2.5146
 6855TIP3    H247489   0.435   1.717   6.511 -0.5629  2.6981  1.3350
 6856TIP3   OH247490   2.178   0.102   6.202  0.3478  0.5015 -0.0873
 6856TIP3    H147491   2.191   0.008   6.209 -1.5321  0.2180  0.1834
 6856TIP3    H247492   2.224   0.139   6.278  1.8261 -0.0943 -0.6789
 6857TIP3   OH247493   8.256   3.130   5.139 -0.2948 -0.3606 -0.1289
 6857TIP3    H147494   8.267   3.135   5.044  1.5632 -0.8428  0.0331
 6857TIP3    H247495   8.320   3.065   5.168  0.2407  0.8855  1.6313
 6858TIP3   OH247496   0.711   1.436   0.394 -0.3832 -0.2300  0.0290
 6858TIP3    H147497   0.671   1.503   0.338  0.7839  0.1053 -0.4246
 6858TIP3    H247498   0.659   1.357   0.378 -0.6371  0.1028 -0.8266
 6859TIP3   OH247499   2.556   6.549   1.386 -0.0546 -0.7200 -0.3210
 6859TIP3    H147500   2.560   6.478   1.451 -0.3783  0.8007  1.4400
 6859TIP3    H247501   2.570   6.629   1.437 -2.2153  0.7138 -1.8117
 6860TIP3   OH247502   0.779   5.998   0.675  0.3766  0.0428 -0.0369
 6860TIP3    H147503   0.806   5.907   0.663 -1.5885 -0.4470 -1.1391
 6860TIP3    H247504   0.698   5.993   0.725 -0.7880  1.0160 -1.7198
 6861TIP3   OH247505   5.620   8.250   6.755 -0.0563 -0.2352 -0.0593
 6861TIP3    H147506   5.547   8.205   6.713 -1.2602 -0.3248  2.0005
 6861TIP3    H247507   5.621   8.337   6.716 -1.5200 -0.1192  0.1208
 6862TIP3   OH247508   1.514   5.257   5.746  0.1612 -0.0319 -0.3276
 6862TIP3    H147509   1.532   5.348   5.720  0.5889 -1.0266 -4.1820
 6862TIP3    H247510   1.430   5.236   5.705  1.4189 -2.1177 -2.1015
 6863TIP3   OH247511   4.953   4.823   6.336  0.2046  0.0745  0.2164
 6863TIP3    H147512   5.047   4.839   6.336  0.3417 -0.6387 -1.2426
 6863TIP3    H247513   4.915   4.908   6.359  1.2069  0.1465  1.7594
 6864TIP3   OH247514   1.884   5.446   5.758 -0.2547  0.4827 -0.1267
 6864TIP3    H147515   1.926   5.413   5.678  0.9494  1.3335  0.1253
 6864TIP3    H247516   1.888   5.541   5.750 -1.3894  0.5808  0.3209
 6865TIP3   OH247517   0.183   6.542   1.038 -0.2308 -0.6827 -0.3373
 6865TIP3    H147518   0.181   6.491   1.120  2.1144  1.3684  1.1101
 6865TIP3    H247519   0.156   6.479   0.971 -2.1634 -2.4933  1.9262
 6866TIP3   OH247520   2.476   3.493   6.947 -0.1331 -0.1229  0.3324
 6866TIP3    H147521   2.546   3.557   6.933 -1.6006  1.4725 -0.0554
 6866TIP3    H247522   2.497   3.454   7.032  1.8967 -0.6405 -0.3439
 6867TIP3   OH247523   1.448   6.859   1.803 -0.0442 -0.4031  0.5439
 6867TIP3    H147524   1.468   6.939   1.851  0.1800  0.9124 -1.6013
 6867TIP3    H247525   1.355   6.842   1.821 -0.3306  0.8587  0.3400
 6868TIP3   OH247526   3.244   4.548   0.470  0.0240  0.2563 -0.6435
 6868TIP3    H147527   3.288   4.559   0.386 -1.9580  1.0086 -1.6419
 6868TIP3    H247528   3.301   4.489   0.519  2.0571  1.0698 -1.8723
 6869TIP3   OH247529   4.322   5.607   1.530 -0.5261 -0.2496  0.6011
 6869TIP3    H147530   4.357   5.533   1.481 -0.4169  0.2975 -0.1815
 6869TIP3    H247531   4.390   5.628   1.594 -0.6690 -0.9751  0.9966
 6870TIP3   OH247532   7.120   2.972   5.377  0.8168 -0.1294 -0.2570
 6870TIP3    H147533   7.124   2.975   5.282  0.1362 -1.9521 -0.3842
 6870TIP3    H247534   7.109   3.063   5.404 -0.7994  0.2501 -2.0146
 6871TIP3   OH247535   4.666   3.604   6.953  0.0997 -0.0641 -0.5731
 6871TIP3    H147536   4.690   3.515   6.926 -1.4308 -1.3405  1.8696
 6871TIP3    H247537   4.745   3.638   6.995  0.9517  0.1114 -2.2242
 6872TIP3   OH247538   2.965   1.420   0.682  0.0760 -0.3194 -0.3312
 6872TIP3    H147539   3.058   1.404   0.699  0.1728  0.0637 -0.5131
 6872TIP3    H247540   2.923   1.337   0.705  0.5262 -0.6776 -0.7694
 6873TIP3   OH247541   7.091   1.170   5.346  0.0275 -0.0744  0.4595
 6873TIP3    H147542   7.070   1.232   5.277  1.0794  1.0001  1.0626
 6873TIP3    H247543   7.037   1.093   5.327  0.1863  0.2429 -1.4606
 6874TIP3   OH247544   1.366   5.700   6.769 -0.3803  0.1128 -0.6309
 6874TIP3    H147545   1.289   5.654   6.735  1.1476 -2.1316 -1.3308
 6874TIP3    H247546   1.332   5.781   6.806 -3.2628 -1.4756  0.4745
 6875TIP3   OH247547   1.542   7.573   5.596  0.1728 -0.6919 -0.2928
 6875TIP3    H147548   1.559   7.483   5.567  0.0709 -1.4000  1.7266
 6875TIP3    H247549   1.488   7.610   5.526  1.8776 -1.5039 -2.1639
 6876TIP3   OH247550   5.003   3.538   0.984  0.6962 -0.2441 -0.0635
 6876TIP3    H147551   5.000   3.443   0.974  0.7659 -0.4406  1.5207
 6876TIP3    H247552   5.094   3.556   1.007  0.9081  0.3303 -1.2778
 6877TIP3   OH247553   0.647   0.457   0.183  0.1399 -0.4869  0.1016
 6877TIP3    H147554   0.560   0.456   0.143  0.0823  0.9857  0.1318
 6877TIP3    H247555   0.698   0.395   0.131  0.5621  2.5403 -3.5052
 6878TIP3   OH247556   7.022   7.421   6.650 -0.4407  0.1325  1.0434
 6878TIP3    H147557   6.981   7.487   6.706  0.3032 -2.0567  4.5286
 6878TIP3    H247558   6.988   7.337   6.683  0.1797 -1.3823 -1.8015
 6879TIP3   OH247559   4.026   6.461   5.039 -0.0456 -0.4964  0.4455
 6879TIP3    H147560   4.031   6.555   5.052 -1.7122 -0.3175  0.0596
 6879TIP3    H247561   4.060   6.423   5.121  2.1389  0.3711 -0.0001
 6880TIP3   OH247562   6.226   1.052   6.453  0.2653  0.1963 -0.0274
 6880TIP3    H147563   6.190   1.106   6.383 -0.1461 -0.2673 -0.1758
 6880TIP3    H247564   6.199   1.096   6.534  0.6990  0.7040 -0.1488
 6881TIP3   OH247565   3.000   7.057   6.995  0.0447 -0.0777 -0.5138
 6881TIP3    H147566   2.956   7.027   6.915 -2.5622  1.7627  0.1072
 6881TIP3    H247567   2.949   7.019   7.066  1.3665 -0.3766  0.3183
 6882TIP3   OH247568   7.748   0.722   0.689 -0.2446  0.3106 -0.3384
 6882TIP3    H147569   7.724   0.629   0.698 -2.2936  0.6807 -1.3826
 6882TIP3    H247570   7.835   0.720   0.648  0.4668 -1.1175  1.1112
 6883TIP3   OH247571   5.973   2.765   0.381  0.2413 -0.2689  0.2605
 6883TIP3    H147572   5.947   2.857   0.390 -0.8264 -0.6359  1.1286
 6883TIP3    H247573   5.920   2.718   0.446  1.6588 -1.3451  0.6825
 6884TIP3   OH247574   8.100   3.795   5.997  0.1399 -0.5760  0.1701
 6884TIP3    H147575   8.132   3.735   6.065 -2.7113  0.1543  2.3607
 6884TIP3    H247576   8.081   3.739   5.922  0.3939 -1.9480  1.0889
 6885TIP3   OH247577   3.797   2.594   1.160 -0.6195  0.5060  0.0270
 6885TIP3    H147578   3.747   2.513   1.154  2.3865 -1.6216  1.1744
 6885TIP3    H247579   3.819   2.602   1.253  3.4881 -0.4222 -0.6516
 6886TIP3   OH247580   2.762   3.037   4.954  0.5762 -0.1160 -0.4907
 6886TIP3    H147581   2.834   3.050   4.893  0.2745  1.9582 -0.4747
 6886TIP3    H247582   2.802   3.039   5.041  0.4409  2.0992 -0.4277
 6887TIP3   OH247583   7.742   3.228   6.087 -0.3679  0.2289 -0.1667
 6887TIP3    H147584   7.719   3.136   6.082 -1.0178  0.3650  0.1020
 6887TIP3    H247585   7.780   3.249   6.002  1.0405 -0.5960  0.2213
 6888TIP3   OH247586   3.001   5.219   1.617  0.1988 -0.1786 -0.6813
 6888TIP3    H147587   3.035   5.134   1.645 -0.8290  0.4978  3.2662
 6888TIP3    H247588   2.918   5.198   1.574 -0.3635 -1.2141  0.8191
 6889TIP3   OH247589   1.160   8.095   6.173  0.3820 -0.0775  0.3880
 6889TIP3    H147590   1.166   8.098   6.269  0.9400  3.8610  0.4068
 6889TIP3    H247591   1.251   8.090   6.144  0.2693 -0.3115  0.0711
 6890TIP3   OH247592   6.052   4.210   0.191 -0.0008  0.0695  0.3274
 6890TIP3    H147593   6.102   4.130   0.204 -0.4023 -0.0083  1.5310
 6890TIP3    H247594   5.966   4.192   0.229 -0.2711  0.8957  0.1512
 6891TIP3   OH247595   5.313   2.625   5.870  0.3231 -0.0546  0.1047
 6891TIP3    H147596   5.228   2.642   5.828 -0.3873  0.4541  1.6538
 6891TIP3    H247597   5.374   2.684   5.825 -0.6955  1.5037  0.6562
 6892TIP3   OH247598   5.154   7.413   0.610  0.1545 -0.0428  1.0263
 6892TIP3    H147599   5.209   7.420   0.532 -0.7507 -0.7000  0.3153
 6892TIP3    H247600   5.207   7.362   0.672  0.8756  0.4748  0.8587
 6893TIP3   OH247601   4.110   4.852   5.053 -0.4351  0.0195  0.0564
 6893TIP3    H147602   4.064   4.903   4.986  2.3379  0.7423 -1.4630
 6893TIP3    H247603   4.042   4.796   5.091 -2.4357  0.6050 -2.3481
 6894TIP3   OH247604   5.061   4.244   0.283 -0.3051  0.6589 -0.0204
 6894TIP3    H147605   4.984   4.281   0.326  0.5687  2.2915  0.2320
 6894TIP3    H247606   5.118   4.217   0.355 -0.4095 -0.0451 -0.1998
 6895TIP3   OH247607   4.589   6.732   1.406 -0.2706 -0.2887  0.1806
 6895TIP3    H147608   4.546   6.813   1.434  1.7013  0.2116  2.1173
 6895TIP3    H247609   4.636   6.756   1.327  0.3729  0.5269  0.7908
 6896TIP3   OH247610   2.544   5.573   0.491  0.3131  0.5578 -0.4191
 6896TIP3    H147611   2.531   5.488   0.533 -2.0649  2.4194  3.0167
 6896TIP3    H247612   2.525   5.557   0.398 -0.2583 -2.5658  0.1304
 6897TIP3   OH247613   7.057   8.186   6.487 -0.0374 -0.4681  0.0208
 6897TIP3    H147614   7.014   8.127   6.548 -0.2971  1.4747  1.8555
 6897TIP3    H247615   7.135   8.216   6.534  2.1396 -2.1002 -2.3035
 6898TIP3   OH247616   0.455   1.257   6.138 -0.5542  0.2273 -0.7636
 6898TIP3    H147617   0.403   1.289   6.065 -0.2045  0.6425 -0.8327
 6898TIP3    H247618   0.447   1.161   6.133 -0.7931  0.2647 -1.1463
 6899TIP3   OH247619   6.884   3.118   6.744  0.0397 -0.1061  0.0504
 6899TIP3    H147620   6.874   3.039   6.798  1.2020  1.1638  2.2485
 6899TIP3    H247621   6.836   3.185   6.791 -1.4118  0.4640 -2.0845
 6900TIP3   OH247622   6.885   0.865   0.214 -0.0793  0.5310  0.6331
 6900TIP3    H147623   6.790   0.871   0.212 -0.2973 -1.6269 -2.4420
 6900TIP3    H247624   6.903   0.799   0.282 -1.0300 -1.0297 -0.5654
 6901TIP3   OH247625   4.082   7.066   0.391 -0.0059  0.4884  0.7258
 6901TIP3    H147626   4.053   7.023   0.471  0.3686 -0.7677  0.2224
 6901TIP3    H247627   4.049   7.155   0.397 -4.5339 -0.8769 -0.0497
 6902TIP3   OH247628   8.076   1.496   5.336 -0.3632  0.2925 -0.3941
 6902TIP3    H147629   7.985   1.499   5.306 -0.1787  0.1856 -0.9760
 6902TIP3    H247630   8.088   1.406   5.366 -0.3067  0.1729 -0.7732
 6903TIP3   OH247631   7.993   5.224   6.201 -0.3812 -0.8109  0.1395
 6903TIP3    H147632   8.047   5.169   6.144 -0.5925  0.6315 -1.5484
 6903TIP3    H247633   7.913   5.174   6.216 -0.5293 -1.0252 -1.2726
 6904TIP3   OH247634   6.291   2.140   6.105 -0.1836 -0.3125 -0.2701
 6904TIP3    H147635   6.330   2.190   6.176 -1.6347  1.6274 -0.7813
 6904TIP3    H247636   6.197   2.140   6.123 -0.4008 -1.3071 -1.2501
 6905TIP3   OH247637   3.308   7.581   0.269  0.1670  0.1711  0.0967
 6905TIP3    H147638   3.310   7.663   0.319  0.1300 -0.8566  1.8918
 6905TIP3    H247639   3.217   7.551   0.275  0.2870 -0.2434 -0.0846
 6906TIP3   OH247640   4.434   4.854   1.918 -0.2120 -0.4899 -0.1144
 6906TIP3    H147641   4.389   4.770   1.929  1.2949 -1.4041 -0.6665
 6906TIP3    H247642   4.493   4.840   1.844 -0.2493  1.2103 -0.5053
 6907TIP3   OH247643   2.021   5.676   0.687  0.1448  0.2674  0.7055
 6907TIP3    H147644   2.112   5.646   0.689  0.9698  2.4702 -0.2576
 6907TIP3    H247645   2.016   5.742   0.756 -0.1187  1.5689 -0.5088
 6908TIP3   OH247646   2.660   8.344   6.823  0.1254 -0.0949 -0.5363
 6908TIP3    H147647   2.598   8.338   6.751  0.2682  0.9604 -0.7719
 6908TIP3    H247648   2.683   8.253   6.843  0.7453 -0.3954 -2.3949
 6909TIP3   OH247649   7.553   6.399   6.583  0.3200  0.0307 -0.4386
 6909TIP3    H147650   7.476   6.379   6.635  2.5004 -0.7489  2.7696
 6909TIP3    H247651   7.529   6.477   6.533 -2.0164  0.7957  1.6865
 6910TIP3   OH247652   8.463   8.059   6.829 -0.0057 -0.0939  0.3715
 6910TIP3    H147653   8.376   8.098   6.819  0.5397  0.9904 -0.4713
 6910TIP3    H247654   8.518   8.109   6.769  0.8389 -1.9611 -0.4886
 6911TIP3   OH247655   7.626   4.600   6.896 -0.4054  0.5121 -0.7420
 6911TIP3    H147656   7.681   4.639   6.829 -0.9424 -1.4879 -2.4542
 6911TIP3    H247657   7.681   4.535   6.939 -1.0369 -0.7260 -1.7247
 6912TIP3   OH247658   3.736   4.991   6.596  0.4996 -0.1844  0.0861
 6912TIP3    H147659   3.802   5.057   6.575  0.6288 -0.3422 -0.0137
 6912TIP3    H247660   3.781   4.907   6.581  0.0968 -0.2947 -0.5768
 6913TIP3   OH247661   3.827   7.203   6.287  0.1375 -0.4942  0.2141
 6913TIP3    H147662   3.828   7.121   6.338  1.2764 -0.1136  0.8314
 6913TIP3    H247663   3.891   7.259   6.331 -0.3846  0.6138 -0.4104
 6914TIP3   OH247664   6.246   5.505   5.587 -0.2691 -0.0946 -0.2413
 6914TIP3    H147665   6.280   5.576   5.642  0.9109  0.2594 -1.3732
 6914TIP3    H247666   6.151   5.517   5.589 -0.1525  0.9216  0.3785
 6915TIP3   OH247667   4.487   6.869   6.111  0.0610  0.2768  0.2108
 6915TIP3    H147668   4.470   6.931   6.181  3.4957  2.1098 -0.3749
 6915TIP3    H247669   4.573   6.833   6.131  0.6260 -0.0235 -2.4458
 6916TIP3   OH247670   3.504   2.060   0.570 -0.2878 -0.4317  0.1571
 6916TIP3    H147671   3.555   2.044   0.650  0.5493  1.2610  0.0013
 6916TIP3    H247672   3.417   2.085   0.601  0.6432  2.5232  0.7352
 6917TIP3   OH247673   5.433   6.119   0.226 -0.2339 -0.4302  0.0421
 6917TIP3    H147674   5.360   6.068   0.261 -0.6731 -0.2628 -0.6151
 6917TIP3    H247675   5.434   6.199   0.280 -0.0144 -0.7910  0.5816
 6918TIP3   OH247676   6.452   2.477   0.699  0.2763  0.4289  0.4055
 6918TIP3    H147677   6.448   2.436   0.613 -0.6396  1.6032 -0.1392
 6918TIP3    H247678   6.463   2.570   0.681  0.2539  0.6680  1.5651
 6919TIP3   OH247679   0.184   1.243   0.642  0.3457 -0.6083 -0.6667
 6919TIP3    H147680   0.105   1.198   0.612 -0.3780  1.5824 -2.3326
 6919TIP3    H247681   0.155   1.291   0.720  0.1746 -0.3270 -0.8983
 6920TIP3   OH247682   1.321   5.285   0.313  0.3687  0.1381 -0.1127
 6920TIP3    H147683   1.332   5.355   0.377  1.6001 -1.5666  1.6416
 6920TIP3    H247684   1.294   5.209   0.364  0.0552 -0.9445 -1.8098
 6921TIP3   OH247685   1.027   1.906   7.042 -0.5838 -0.2393 -0.1307
 6921TIP3    H147686   1.036   1.831   0.029  0.6664 -1.5891 -1.9503
 6921TIP3    H247687   1.002   1.868   6.958  1.2273  1.2400 -1.4118
 6922TIP3   OH247688   3.986   4.458   5.861  0.0346  0.1357 -0.1145
 6922TIP3    H147689   4.051   4.525   5.883 -0.6152  0.3396  1.3564
 6922TIP3    H247690   3.962   4.420   5.946 -3.4184  1.6310 -0.2338
 6923TIP3   OH247691   8.460   5.858   1.026 -0.3186 -0.0698  0.3678
 6923TIP3    H147692   8.490   5.921   1.092 -0.1774 -0.5736  0.7892
 6923TIP3    H247693   8.427   5.784   1.077  0.0728 -0.5940 -0.1275
 6924TIP3   OH247694   6.016   6.259   0.370 -0.5009 -0.1746  0.0228
 6924TIP3    H147695   5.937   6.313   0.362 -0.0133  0.2765 -2.7270
 6924TIP3    H247696   6.082   6.319   0.403 -0.6522  0.1877 -0.3197
 6925TIP3   OH247697   6.568   6.669   0.486  0.9341 -1.0556 -0.4250
 6925TIP3    H147698   6.488   6.631   0.523 -0.5195  1.6511 -0.5154
 6925TIP3    H247699   6.620   6.695   0.562 -0.0240  0.5055 -0.2625
 6926TIP3   OH247700   1.258   8.289   1.235  0.6123  0.9714 -0.3584
 6926TIP3    H147701   1.299   8.364   1.191 -2.0474  3.5048  1.0817
 6926TIP3    H247702   1.292   8.291   1.324 -1.7913  2.6820  0.6520
 6927TIP3   OH247703   6.732   5.110   5.589  0.7251 -0.6606 -0.5266
 6927TIP3    H147704   6.736   5.120   5.493  0.4719 -0.0444 -0.4741
 6927TIP3    H247705   6.641   5.086   5.607  0.7301 -0.6056 -0.4278
 6928TIP3   OH247706   0.633   4.024   6.288 -0.1213 -0.5319  0.1138
 6928TIP3    H147707   0.626   3.989   6.376 -0.6535 -0.2293  0.1986
 6928TIP3    H247708   0.579   4.103   6.289  0.1843 -0.3091 -0.3727
 6929TIP3   OH247709   4.054   5.672   6.986  0.1197 -0.9159 -0.1850
 6929TIP3    H147710   4.018   5.596   6.941  1.8375 -3.2396  2.0205
 6929TIP3    H247711   3.982   5.704   7.040  0.0573 -2.8807  1.0330
 6930TIP3   OH247712   2.843   7.677   6.414 -0.1701  0.0558  0.4474
 6930TIP3    H147713   2.769   7.703   6.469 -1.6675  1.6829 -2.1398
 6930TIP3    H247714   2.917   7.728   6.447 -0.8143  0.3956  1.4100
 6931TIP3   OH247715   7.229   4.474   1.913 -0.6791  0.2759  0.3214
 6931TIP3    H147716   7.310   4.477   1.861 -0.1888 -0.8784  0.9806
 6931TIP3    H247717   7.160   4.457   1.848 -0.3173  0.6470 -0.1703
 6932TIP3   OH247718   6.855   2.808   6.778  0.1872  0.4230 -0.5708
 6932TIP3    H147719   6.915   2.772   6.713  2.0321 -0.6489  1.5901
 6932TIP3    H247720   6.782   2.841   6.727  0.5528 -2.2021 -3.0555
 6933TIP3   OH247721   8.320   4.210   5.452  0.1852  0.2397  0.0764
 6933TIP3    H147722   8.280   4.252   5.376 -0.0508  0.1133  0.1300
 6933TIP3    H247723   8.309   4.274   5.523 -1.8978 -0.6742  0.6331
 6934TIP3   OH247724   3.264   7.911   6.966 -0.1369 -0.2195  0.0717
 6934TIP3    H147725   3.269   7.834   6.909 -1.3809 -0.2715  0.0080
 6934TIP3    H247726   3.335   7.968   6.935  1.0436 -1.4802  0.3584
 6935TIP3   OH247727   0.941   7.351   1.310  0.1414 -0.3662 -0.4463
 6935TIP3    H147728   0.935   7.446   1.296 -0.5400 -0.6343 -2.2609
 6935TIP3    H247729   1.035   7.332   1.306  0.9403  0.7866  4.8764
 6936TIP3   OH247730   2.403   4.153   6.701  0.2374  0.2947  0.2456
 6936TIP3    H147731   2.366   4.210   6.769 -1.4735 -0.5699  0.0754
 6936TIP3    H247732   2.343   4.079   6.696  0.1899  0.4141 -2.3594
 6937TIP3   OH247733   7.390   4.709   1.331 -0.2479  0.1816  0.2023
 6937TIP3    H147734   7.395   4.801   1.356 -0.5408  0.4247 -0.6119
 6937TIP3    H247735   7.456   4.699   1.262  1.2451 -0.7001  1.6695
 6938TIP3   OH247736   7.515   1.728   7.049  0.4857  0.0323  0.8591
 6938TIP3    H147737   7.463   1.714   6.970 -1.0925  2.1424  1.4365
 6938TIP3    H247738   7.604   1.702   7.024  0.3071  1.8117 -2.0196
 6939TIP3   OH247739   4.741   0.382   5.639 -0.9163 -0.2942 -0.3848
 6939TIP3    H147740   4.752   0.337   5.555 -1.4174  1.2810 -1.3399
 6939TIP3    H247741   4.760   0.474   5.619 -2.0519  0.2738  1.0041
 6940TIP3   OH247742   2.881   6.510   5.962  0.3235  0.2426  0.4737
 6940TIP3    H147743   2.872   6.519   5.867  1.8114 -0.5859  0.2194
 6940TIP3    H247744   2.795   6.533   5.996 -1.3791 -2.8492 -1.2792
 6941TIP3   OH247745   0.314   6.018   1.326 -0.5806 -0.2524  0.4521
 6941TIP3    H147746   0.252   6.017   1.399 -0.8947 -1.1518  0.1930
 6941TIP3    H247747   0.354   6.105   1.329 -2.2084  0.5356  0.3283
 6942TIP3   OH247748   8.236   2.627   6.234  0.3259 -0.0953 -0.2217
 6942TIP3    H147749   8.332   2.626   6.241  0.2840  1.3210  1.0861
 6942TIP3    H247750   8.218   2.683   6.159  0.5073  0.8179  0.4093
 6943TIP3   OH247751   1.629   6.283   7.071 -0.1589  0.0312  0.6586
 6943TIP3    H147752   1.597   6.291   6.981  0.9621  0.9644  0.3122
 6943TIP3    H247753   1.588   6.356   0.046  0.6409  0.6060  0.4676
 6944TIP3   OH247754   6.785   4.382   0.396  0.1256  0.3575 -0.2263
 6944TIP3    H147755   6.774   4.469   0.356 -2.2465 -0.3901 -1.4206
 6944TIP3    H247756   6.832   4.331   0.331  2.1204  0.8578  0.7498
 6945TIP3   OH247757   4.544   5.789   2.040 -0.1495  0.1160 -0.1598
 6945TIP3    H147758   4.482   5.808   1.970  0.8724  0.8070 -0.9050
 6945TIP3    H247759   4.492   5.743   2.106 -0.7932 -2.0743 -2.0603
 6946TIP3   OH247760   3.572   4.087   6.250 -0.0016 -0.0237  0.0040
 6946TIP3    H147761   3.568   4.100   6.156  1.9515 -0.0882 -0.1112
 6946TIP3    H247762   3.597   3.996   6.261  3.7622  0.9129  0.4352
 6947TIP3   OH247763   2.787   3.264   7.003  0.1083 -0.6838  0.1586
 6947TIP3    H147764   2.743   3.348   6.991 -2.0572 -1.6558  0.7849
 6947TIP3    H247765   2.795   3.229   6.915 -1.3229 -0.8950  0.0823
 6948TIP3   OH247766   5.303   2.481   0.861 -0.5850 -0.0298 -0.0801
 6948TIP3    H147767   5.230   2.433   0.821 -1.2086 -0.7655  1.8259
 6948TIP3    H247768   5.376   2.467   0.801 -1.7789  0.0301 -1.6140
 6949TIP3   OH247769   6.706   5.361   0.126 -0.4243 -0.9934  0.7591
 6949TIP3    H147770   6.689   5.285   0.182 -1.4770 -0.0108  1.8254
 6949TIP3    H247771   6.638   5.424   0.150 -1.3851 -0.7769 -2.1515
 6950TIP3   OH247772   2.058   0.846   6.883  0.3366  0.3079  0.4875
 6950TIP3    H147773   2.029   0.814   6.797 -0.7563 -2.2864  1.7374
 6950TIP3    H247774   2.134   0.901   6.863 -0.8424  1.1433 -2.2547
 6951TIP3   OH247775   7.472   5.881   2.048 -0.5671 -0.2033  0.0300
 6951TIP3    H147776   7.485   5.967   2.007 -1.0662  0.5655  1.3738
 6951TIP3    H247777   7.553   5.834   2.033  0.2309  1.0106  0.3682
 6952TIP3   OH247778   7.216   5.919   2.056 -0.1568 -0.2058 -0.7710
 6952TIP3    H147779   7.204   5.824   2.045 -0.5456 -0.4411  1.2832
 6952TIP3    H247780   7.310   5.932   2.054 -0.0701 -0.7385 -0.4788
 6953TIP3   OH247781   5.282   1.774   6.066  0.1169 -0.1689 -0.0070
 6953TIP3    H147782   5.249   1.814   5.985  0.8013 -0.2812 -0.3532
 6953TIP3    H247783   5.328   1.845   6.110  2.5211 -0.8266 -1.2797
 6954TIP3   OH247784   2.481   3.218   6.200 -0.3994 -0.0293  0.1957
 6954TIP3    H147785   2.518   3.186   6.118 -2.0661 -0.2141 -0.5234
 6954TIP3    H247786   2.538   3.180   6.268  1.1126  0.2733 -0.8418
 6955TIP3   OH247787   6.477   1.408   6.251 -0.0201  0.4447  0.6194
 6955TIP3    H147788   6.554   1.352   6.262  0.1466  0.1771 -1.5435
 6955TIP3    H247789   6.422   1.362   6.187  0.4493  2.9849 -1.7916
 6956TIP3   OH247790   7.503   8.198   0.956 -0.3153  0.4301 -0.4480
 6956TIP3    H147791   7.409   8.184   0.946 -0.4807 -0.2177  1.6342
 6956TIP3    H247792   7.511   8.289   0.983 -0.1680  0.9844 -2.2118
 6957TIP3   OH247793   0.863   3.782   5.185  0.2622  0.5461  0.0712
 6957TIP3    H147794   0.849   3.716   5.118 -0.4872  1.2289 -0.4634
 6957TIP3    H247795   0.930   3.840   5.148 -2.1217  2.5675 -1.3983
 6958TIP3   OH247796   4.247   2.014   1.730 -0.2789  0.2589 -0.5122
 6958TIP3    H147797   4.203   1.950   1.785 -0.1684  0.0762 -0.6371
 6958TIP3    H247798   4.338   2.013   1.759  0.2696 -1.3975 -2.1162
 6959TIP3   OH247799   6.288   3.691   1.142  0.1227  0.1063  0.4422
 6959TIP3    H147800   6.247   3.736   1.216 -0.5227  2.8510 -1.4240
 6959TIP3    H247801   6.221   3.691   1.074  0.5763 -2.6700 -0.0993
 6960TIP3   OH247802   2.047   5.406   1.568  0.2072  0.2201  0.0734
 6960TIP3    H147803   2.095   5.334   1.609  2.8031  2.4715  1.2988
 6960TIP3    H247804   1.998   5.447   1.639  0.9466  1.2768 -0.0029
 6961TIP3   OH247805   5.275   0.676   5.590  0.1819 -0.0660  0.2874
 6961TIP3    H147806   5.216   0.739   5.549 -0.3854 -1.4742 -1.1883
 6961TIP3    H247807   5.234   0.591   5.574  2.8152 -1.1728 -1.2800
 6962TIP3   OH247808   3.132   6.021   0.324  0.1653  0.3325 -0.3212
 6962TIP3    H147809   3.139   6.009   0.419  1.6116 -3.1746 -0.7215
 6962TIP3    H247810   3.085   5.944   0.293 -0.1608  1.3311 -2.4954
 6963TIP3   OH247811   2.209   0.547   5.860  0.1617  0.5851 -0.5313
 6963TIP3    H147812   2.197   0.513   5.772  0.8291  0.5695 -0.6258
 6963TIP3    H247813   2.121   0.556   5.895 -0.0501 -2.7516  0.0980
 6964TIP3   OH247814   6.196   3.585   6.013  0.7074 -0.1272 -0.3024
 6964TIP3    H147815   6.234   3.672   6.000  1.5203 -0.4681 -0.2976
 6964TIP3    H247816   6.248   3.546   6.083  0.0095 -0.4248  0.0641
 6965TIP3   OH247817   6.225   4.387   0.254  0.3268 -0.0271 -0.1457
 6965TIP3    H147818   6.161   4.320   0.232  1.4881 -1.1323 -0.2961
 6965TIP3    H247819   6.281   4.346   0.320 -0.3597  1.6382  1.5739
 6966TIP3   OH247820   6.099   0.506   1.264 -0.1033 -0.1274 -0.2207
 6966TIP3    H147821   6.055   0.520   1.348  1.7830  1.1893  0.5998
 6966TIP3    H247822   6.031   0.467   1.208 -1.9095  0.5955  1.3625
 6967TIP3   OH247823   2.448   4.792   6.906 -0.2507 -0.2836 -0.3140
 6967TIP3    H147824   2.490   4.858   6.851  0.5083 -0.9088 -0.5057
 6967TIP3    H247825   2.497   4.796   6.988 -1.9051  1.2301  0.6730
 6968TIP3   OH247826   4.653   1.547   6.633 -0.1988 -0.2697  0.9669
 6968TIP3    H147827   4.730   1.597   6.661 -0.0992 -0.0371  0.2852
 6968TIP3    H247828   4.601   1.609   6.582 -0.5868 -0.5704  0.9910
 6969TIP3   OH247829   3.613   6.578   0.808  0.5042  0.2950 -0.5302
 6969TIP3    H147830   3.638   6.626   0.887 -0.0191 -0.7041  0.2729
 6969TIP3    H247831   3.695   6.566   0.760  0.7746  1.2168 -0.3235
 6970TIP3   OH247832   5.786   8.044   5.570 -0.0082  0.6298  0.3412
 6970TIP3    H147833   5.793   8.069   5.663 -2.8823  1.9361  0.3302
 6970TIP3    H247834   5.761   8.125   5.526 -0.4058 -0.3495 -1.2952
 6971TIP3   OH247835   0.802   0.439   2.002 -0.3171  0.4042  0.0876
 6971TIP3    H147836   0.873   0.394   1.957  0.6708  0.3785  1.5780
 6971TIP3    H247837   0.734   0.372   2.013  0.9164 -0.6489  1.7984
 6972TIP3   OH247838   4.050   4.519   6.754  0.2895 -0.6028 -0.2388
 6972TIP3    H147839   3.966   4.550   6.718  0.7275  0.0826 -0.6932
 6972TIP3    H247840   4.072   4.443   6.699  1.1826  0.7128 -1.7931
 6973TIP3   OH247841   6.312   0.153   0.842 -0.1221 -0.2048  0.1057
 6973TIP3    H147842   6.358   0.195   0.770  0.5401 -0.6745  0.2456
 6973TIP3    H247843   6.322   0.059   0.827 -2.0121 -0.3580 -0.4752
 6974TIP3   OH247844   0.327   1.932   6.116  0.3496  0.0042  0.3722
 6974TIP3    H147845   0.265   1.859   6.126 -2.2779  2.0126 -0.1340
 6974TIP3    H247846   0.297   1.978   6.038  3.5048  0.2738 -0.8373
 6975TIP3   OH247847   8.227   1.075   5.736  0.1305  0.4370 -0.2906
 6975TIP3    H147848   8.182   1.023   5.670  0.5380 -0.3491  0.0398
 6975TIP3    H247849   8.319   1.056   5.724  0.4193  2.1691 -1.0644
 6976TIP3   OH247850   0.094   7.205   6.090  0.3826 -0.1177  0.2881
 6976TIP3    H147851   0.048   7.132   6.049 -0.2038 -0.3735  1.3548
 6976TIP3    H247852   0.047   7.283   6.060 -1.6571 -0.4337  2.3602
 6977TIP3   OH247853   1.946   7.517   0.358  0.3327  0.2545 -0.2239
 6977TIP3    H147854   1.992   7.481   0.282  0.4689 -0.4017  0.1624
 6977TIP3    H247855   1.884   7.449   0.384 -0.9698  1.1740 -0.8129
 6978TIP3   OH247856   7.065   6.263   1.055  0.5128  1.0194 -0.3397
 6978TIP3    H147857   6.983   6.221   1.082  1.2363 -0.6384 -0.5605
 6978TIP3    H247858   7.051   6.288   0.964  0.4590  0.0881 -0.6021
 6979TIP3   OH247859   4.374   2.810   1.218  0.5483  0.4834 -0.2246
 6979TIP3    H147860   4.381   2.879   1.152 -2.0969  0.0768 -1.0533
 6979TIP3    H247861   4.333   2.852   1.293 -0.3315  0.0130 -0.4338
 6980TIP3   OH247862   7.811   0.784   1.479 -0.8359 -0.3113 -0.0703
 6980TIP3    H147863   7.809   0.880   1.486 -0.6997 -0.1229 -2.0991
 6980TIP3    H247864   7.891   0.758   1.524  0.8996  0.8680 -2.2941
 6981TIP3   OH247865   6.028   6.715   0.553  0.1407  0.2179  0.4880
 6981TIP3    H147866   6.100   6.777   0.562 -0.5213  0.8709  1.5570
 6981TIP3    H247867   5.957   6.767   0.516  0.5325 -0.6886 -1.6752
 6982TIP3   OH247868   5.521   1.583   6.299  0.2638  0.0446  0.0691
 6982TIP3    H147869   5.555   1.657   6.350 -0.3368 -0.1127  0.7079
 6982TIP3    H247870   5.427   1.582   6.318 -0.2527  0.8112 -2.0731
 6983TIP3   OH247871   4.492   3.965   0.538 -0.1792 -0.3816 -0.4923
 6983TIP3    H147872   4.523   3.963   0.448  1.0480  0.9349 -0.1393
 6983TIP3    H247873   4.505   3.876   0.570 -1.2105 -1.0240 -1.7729
 6984TIP3   OH247874   0.698   5.951   6.529 -0.3397 -0.8415  0.2509
 6984TIP3    H147875   0.670   5.968   6.619 -0.4614  0.7159 -0.0379
 6984TIP3    H247876   0.628   5.989   6.475  0.4662 -0.3581 -0.4899
 6985TIP3   OH247877   8.084   1.665   0.036  0.2282  0.6875 -0.2406
 6985TIP3    H147878   8.079   1.605   0.110 -0.3635 -0.5451 -1.2357
 6985TIP3    H247879   8.051   1.615   7.033  0.8041  1.8785 -1.3556
 6986TIP3   OH247880   3.059   4.262   0.646  0.3721 -0.4938  0.7254
 6986TIP3    H147881   3.039   4.338   0.700 -1.0025 -1.9627  2.3957
 6986TIP3    H247882   3.036   4.289   0.557 -0.5404  0.8835  1.3457
 6987TIP3   OH247883   0.830   8.339   5.366  0.2665  0.3490  0.0584
 6987TIP3    H147884   0.882   8.367   5.441 -1.0696  0.4985  0.9840
 6987TIP3    H247885   0.861   8.251   5.347  1.3347  0.7049  0.1153
 6988TIP3   OH247886   1.439   4.762   5.304 -0.2190  0.5730 -0.5864
 6988TIP3    H147887   1.454   4.669   5.289 -1.6311  0.0958  0.7082
 6988TIP3    H247888   1.373   4.786   5.239 -0.5771  0.4207 -0.2827
 6989TIP3   OH247889   8.366   4.292   0.432 -0.0077 -0.4323  0.5530
 6989TIP3    H147890   8.442   4.252   0.389 -0.4441 -1.3689  0.6103
 6989TIP3    H247891   8.358   4.244   0.514 -0.3420  0.0276  0.7878
 6990TIP3   OH247892   3.885   8.526   1.376 -0.0604  0.7451  0.2330
 6990TIP3    H147893   3.879   8.504   1.283 -0.4516  0.9186  0.2109
 6990TIP3    H247894   3.864   8.445   1.421 -0.1705  0.7334  0.1631
 6991TIP3   OH247895   6.333   1.393   6.740 -0.2713  0.1702 -0.0910
 6991TIP3    H147896   6.366   1.323   6.797 -0.2416 -0.8776 -1.3365
 6991TIP3    H247897   6.262   1.433   6.789 -0.4697 -0.9244  0.5459
 6992TIP3   OH247898   2.319   2.571   6.508  0.6507  0.2087  0.2391
 6992TIP3    H147899   2.303   2.583   6.601  0.8868  1.1055  0.1740
 6992TIP3    H247900   2.337   2.477   6.498 -0.0529 -0.0106  0.9818
 6993TIP3   OH247901   5.440   1.060   6.797  0.6114  0.0573  0.4994
 6993TIP3    H147902   5.454   0.983   6.742  1.1339 -0.3792  1.2128
 6993TIP3    H247903   5.374   1.032   6.861 -0.8195  0.9087 -0.5380
 6994TIP3   OH247904   0.968   7.592   5.135 -0.1881  0.0510 -0.2712
 6994TIP3    H147905   1.061   7.580   5.114  0.1019  1.7845 -0.1216
 6994TIP3    H247906   0.924   7.590   5.049 -0.4339 -3.3486 -0.2082
 6995TIP3   OH247907   0.977   7.038   1.237 -0.2770  0.5197 -0.4192
 6995TIP3    H147908   0.962   7.130   1.216  0.7025  1.2497  1.7302
 6995TIP3    H247909   0.964   7.033   1.332 -0.0938 -1.5258 -0.4533
 6996TIP3   OH247910   3.154   7.046   1.067 -0.0265 -0.3330 -0.0388
 6996TIP3    H147911   3.209   6.999   1.005 -1.8073 -1.1746 -1.0369
 6996TIP3    H247912   3.131   7.128   1.023  0.0397 -0.1873  0.1927
 6997TIP3   OH247913   1.908   4.285   0.088  0.3121  0.6543 -0.7640
 6997TIP3    H147914   1.905   4.311   0.180  0.1325 -1.0956 -0.2324
 6997TIP3    H247915   1.970   4.212   0.086 -1.7199 -1.1541 -1.4924
 6998TIP3   OH247916   6.116   1.966   6.642 -0.5705 -0.0468 -0.1915
 6998TIP3    H147917   6.145   1.937   6.556 -1.4105  1.3118 -0.9727
 6998TIP3    H247918   6.194   1.959   6.697  0.0200 -0.7730 -1.0958
 6999TIP3   OH247919   2.786   8.097   6.817  0.2400 -0.3233 -0.5275
 6999TIP3    H147920   2.874   8.102   6.854  0.1174 -1.0661 -0.1041
 6999TIP3    H247921   2.743   8.029   6.869 -0.6960  0.2806 -0.4977
 7000TIP3   OH247922   4.733   6.322   0.138 -0.2810 -0.1855  0.0028
 7000TIP3    H147923   4.727   6.259   0.210  2.4114  1.0603  1.4797
 7000TIP3    H247924   4.775   6.273   0.067 -1.0331 -0.8673  0.0147
 7001TIP3   OH247925   8.229   0.113   0.175 -0.1236 -0.2666  0.0114
 7001TIP3    H147926   8.323   0.098   0.164 -0.1961  0.1881 -1.4095
 7001TIP3    H247927   8.221   0.202   0.208 -0.0996  0.1882 -1.1824
 7002TIP3   OH247928   3.183   5.963   5.400 -0.4348  0.0296 -0.2657
 7002TIP3    H147929   3.188   5.891   5.464  0.7132  1.0181  0.8123
 7002TIP3    H247930   3.182   6.042   5.454  0.3683  0.8870 -1.4724
 7003TIP3   OH247931   2.564   5.349   0.640  0.3207 -0.1227  0.0822
 7003TIP3    H147932   2.508   5.336   0.716  0.1253  1.1034  0.1759
 7003TIP3    H247933   2.649   5.316   0.667  0.2998  0.4619  0.9081
 7004TIP3   OH247934   2.065   2.327   6.614 -0.0632 -0.6200 -0.1898
 7004TIP3    H147935   2.068   2.401   6.554  1.3482 -0.3718  0.1589
 7004TIP3    H247936   2.008   2.357   6.685  0.9220  0.3625  0.2149
 7005TIP3   OH247937   1.784   7.948   0.857 -0.0347 -0.2334  0.4596
 7005TIP3    H147938   1.722   7.876   0.866  0.3487 -0.7412 -0.6948
 7005TIP3    H247939   1.814   7.966   0.946 -2.9754  1.0850  1.3087
 7006TIP3   OH247940   3.918   7.443   1.392 -0.1196 -0.0383  0.3216
 7006TIP3    H147941   4.001   7.454   1.438 -0.0474 -2.0104  0.7563
 7006TIP3    H247942   3.935   7.476   1.303  1.3857 -1.1269  0.1672
 7007TIP3   OH247943   6.212   5.743   1.096 -0.1489 -0.7593 -0.3160
 7007TIP3    H147944   6.254   5.721   1.014  0.6411 -0.3227 -0.0357
 7007TIP3    H247945   6.150   5.812   1.074 -0.4233 -1.1116 -0.6550
 7008TIP3   OH247946   1.696   2.064   6.008 -0.5231 -0.5361 -0.1509
 7008TIP3    H147947   1.774   2.013   5.991 -1.2409 -2.1250  1.0111
 7008TIP3    H247948   1.714   2.108   6.091 -0.7599 -0.7040 -0.0094
 7009TIP3   OH247949   7.328   2.090   5.437  0.6341  0.0542  0.3467
 7009TIP3    H147950   7.336   2.185   5.438  0.3254  0.0800  0.3002
 7009TIP3    H247951   7.246   2.072   5.390 -0.0406 -0.1764  1.5719
 7010TIP3   OH247952   1.534   4.027   1.174  0.0116  0.0376  0.0715
 7010TIP3    H147953   1.513   3.987   1.259  1.3714  1.3851  1.0879
 7010TIP3    H247954   1.616   4.073   1.189  0.3052  0.2680 -2.0187
 7011TIP3   OH247955   1.376   4.994   6.080  0.1141 -0.4791 -0.6270
 7011TIP3    H147956   1.355   5.073   6.031 -0.8102 -0.8125 -0.7832
 7011TIP3    H247957   1.471   4.995   6.089  0.1938  0.1198 -1.5168
 7012TIP3   OH247958   7.225   8.055   0.711 -0.7876  0.1667  0.0829
 7012TIP3    H147959   7.140   8.085   0.743 -1.6177  0.4544 -2.2381
 7012TIP3    H247960   7.209   7.965   0.683 -0.1192 -0.0325  0.3165
 7013TIP3   OH247961   7.372   1.288   5.210 -0.0625 -0.1382  0.7908
 7013TIP3    H147962   7.454   1.315   5.250  0.9335  0.7042 -1.6282
 7013TIP3    H247963   7.322   1.369   5.202 -0.6130 -0.4406  1.1081
 7014TIP3   OH247964   3.776   2.678   0.728  0.3224  0.0276 -0.3315
 7014TIP3    H147965   3.748   2.625   0.802  4.1862 -2.2389 -0.1962
 7014TIP3    H247966   3.802   2.762   0.767 -1.2851  0.2856  0.2311
 7015TIP3   OH247967   4.389   3.887   6.308 -0.9696  0.4443  0.1052
 7015TIP3    H147968   4.334   3.934   6.371 -1.2481 -0.7759  0.7935
 7015TIP3    H247969   4.455   3.951   6.282 -0.9287  1.0162  1.5448
 7016TIP3   OH247970   5.303   6.174   1.614 -0.2196 -0.6752 -0.3483
 7016TIP3    H147971   5.329   6.152   1.704  0.0187  0.1483 -0.2085
 7016TIP3    H247972   5.221   6.126   1.600  0.6567 -2.2783 -0.3350
 7017TIP3   OH247973   4.331   0.335   0.456 -0.0738 -0.3221 -0.3235
 7017TIP3    H147974   4.409   0.385   0.433  1.3910 -1.8106  1.1022
 7017TIP3    H247975   4.302   0.372   0.539  0.5396 -1.2394  0.3252
 7018TIP3   OH247976   6.281   3.754   0.783  1.2233 -0.2694  0.0661
 7018TIP3    H147977   6.348   3.686   0.786  2.4842  0.9194 -0.3787
 7018TIP3    H247978   6.282   3.786   0.693 -0.3307 -0.5743 -0.0999
 7019TIP3   OH247979   5.763   2.411   0.446  0.3960 -0.1733 -0.1923
 7019TIP3    H147980   5.812   2.423   0.365  0.6703  1.0525  0.1373
 7019TIP3    H247981   5.764   2.316   0.461 -1.3586 -0.6769 -2.6384
 7020TIP3   OH247982   6.852   6.369   0.612 -0.1530 -0.5168  0.1408
 7020TIP3    H147983   6.772   6.347   0.661 -0.1771 -0.4968  0.1096
 7020TIP3    H247984   6.824   6.431   0.546 -0.6638 -2.6030 -1.7236
 7021TIP3   OH247985   2.460   0.285   6.949  0.2231  0.1007 -0.0628
 7021TIP3    H147986   2.429   0.199   6.921 -0.4614  0.5412 -0.7039
 7021TIP3    H247987   2.539   0.267   7.000  1.5046 -0.7415 -2.2454
 7022TIP3   OH247988   4.159   2.778   0.940  0.2347  0.7520 -0.0775
 7022TIP3    H147989   4.115   2.724   1.005  0.5804  0.6888  0.1067
 7022TIP3    H247990   4.216   2.836   0.991  0.0053  1.1673 -0.2825
 7023TIP3   OH247991   1.898   1.450   0.186  0.4412  0.2733 -0.3130
 7023TIP3    H147992   1.938   1.415   0.106 -1.0218 -0.7510 -0.6472
 7023TIP3    H247993   1.914   1.384   0.253 -1.4076 -0.6046 -0.6780
 7024TIP3   OH247994   4.095   4.778   6.616  0.0964 -0.5049  0.4916
 7024TIP3    H147995   4.097   4.724   6.695 -0.8344  0.8821  1.5188
 7024TIP3    H247996   4.085   4.868   6.649  0.8140  0.2343 -1.1721
 7025TIP3   OH247997   7.651   6.037   1.164  0.1210 -0.1868 -0.4079
 7025TIP3    H147998   7.738   6.026   1.204 -1.0091  1.9293  3.0939
 7025TIP3    H247999   7.664   6.104   1.097  1.0320  1.1154  1.0031
 7026TIP3   OH248000   7.095   1.396   6.807  0.0790 -0.2693  0.1267
 7026TIP3    H148001   7.124   1.427   6.722  0.3117 -0.1276  0.2561
 7026TIP3    H248002   7.167   1.419   6.867 -0.7112  0.9796  0.6414
 7027TIP3   OH248003   5.582   8.278   6.116  0.2841  0.0144  0.0499
 7027TIP3    H148004   5.527   8.229   6.056 -1.1983 -1.2314  2.2941
 7027TIP3    H248005   5.532   8.357   6.136 -0.2034 -0.5673  1.2011
 7028TIP3   OH248006   0.512   3.046   6.174  0.1549 -0.4581  0.2696
 7028TIP3    H148007   0.445   2.992   6.130  0.8258 -0.7483 -0.4165
 7028TIP3    H248008   0.494   3.034   6.267 -0.4810 -0.8797  0.1036
 7029TIP3   OH248009   7.842   1.586   6.723  0.0097  0.2340  0.1474
 7029TIP3    H148010   7.761   1.536   6.731 -0.0494  0.5085  1.4153
 7029TIP3    H248011   7.909   1.529   6.761  0.1854  0.5477  0.3068
 7030TIP3   OH248012   8.094   7.615   6.477 -0.6615  0.7002  0.2072
 7030TIP3    H148013   8.001   7.593   6.481 -0.9021  1.6687  0.0529
 7030TIP3    H248014   8.139   7.530   6.476 -1.5842  0.2066 -0.9132
 7031TIP3   OH248015   6.381   4.865   5.828 -0.3867 -0.4227 -0.4473
 7031TIP3    H148016   6.330   4.848   5.749 -0.2840 -0.2567 -0.5496
 7031TIP3    H248017   6.374   4.785   5.879  1.5084 -1.4754 -1.6926
 7032TIP3   OH248018   6.348   2.124   0.658  0.6116  0.1195 -1.2002
 7032TIP3    H148019   6.273   2.065   0.660 -0.1267  1.0501 -0.8253
 7032TIP3    H248020   6.310   2.211   0.652  1.5490  0.7849  1.1429
 7033TIP3   OH248021   7.850   4.421   6.995  0.5309 -0.4886  0.8911
 7033TIP3    H148022   7.945   4.409   7.001  0.9754  0.7921 -2.0187
 7033TIP3    H248023   7.817   4.337   6.962  1.0356 -0.0958 -0.6618
 7034TIP3   OH248024   2.938   5.731   6.133 -0.1502 -0.3473 -0.0729
 7034TIP3    H148025   2.904   5.708   6.219 -2.1513  0.2578 -0.6298
 7034TIP3    H248026   2.985   5.814   6.147  1.1766 -1.2003  0.7219
 7035TIP3   OH248027   0.049   7.651   5.714 -0.1487 -0.1911  0.0959
 7035TIP3    H148028   0.044   7.600   5.634 -2.2872  1.1430 -0.7034
 7035TIP3    H248029   0.117   7.716   5.697 -1.4332  0.8736 -1.1736
 7036TIP3   OH248030   3.027   7.248   0.340  0.0201  0.4394 -0.5114
 7036TIP3    H148031   3.011   7.341   0.357 -0.1029 -0.0148  2.3008
 7036TIP3    H248032   3.085   7.221   0.411 -0.5777 -1.8206 -0.8240
 7037TIP3   OH248033   1.124   6.042   0.298  0.0380  0.2394  0.7356
 7037TIP3    H148034   1.116   5.972   0.364  0.3779 -0.4008  0.1083
 7037TIP3    H248035   1.041   6.040   0.251  0.4869 -0.5368 -0.0463
 7038TIP3   OH248036   6.927   7.579   6.351  0.2602 -0.2806  0.1890
 7038TIP3    H148037   7.003   7.536   6.310  2.1953  2.1419  1.0289
 7038TIP3    H248038   6.875   7.506   6.384  0.0444 -2.2635 -3.8698
 7039TIP3   OH248039   6.654   5.920   5.574  0.1486 -0.1153 -0.1679
 7039TIP3    H148040   6.612   6.005   5.561  1.3443  0.6936  0.9603
 7039TIP3    H248041   6.718   5.915   5.503  0.7788  0.4134  0.3465
 7040TIP3   OH248042   2.079   1.196   0.927  0.1679 -0.7273 -0.7060
 7040TIP3    H148043   2.138   1.227   0.996 -1.1672 -1.4214  0.7908
 7040TIP3    H248044   2.036   1.120   0.964 -1.9807 -0.0179 -1.5949
 7041TIP3   OH248045   7.981   5.472   1.106 -0.0716 -0.0456 -1.1120
 7041TIP3    H148046   7.890   5.499   1.096  0.6802  2.4233 -1.8881
 7041TIP3    H248047   7.984   5.385   1.066 -2.0685 -0.1647 -1.1081
 7042TIP3   OH248048   4.692   0.202   0.698  0.2795 -0.1963  0.5150
 7042TIP3    H148049   4.603   0.234   0.712 -0.4452 -1.8223 -0.0622
 7042TIP3    H248050   4.746   0.280   0.699 -1.2805  0.9537 -0.1303
 7043TIP3   OH248051   0.503   7.637   5.815  0.5617  0.1117  0.6432
 7043TIP3    H148052   0.507   7.542   5.829  0.0236 -0.2886 -1.5148
 7043TIP3    H248053   0.467   7.672   5.896  0.5706 -1.5515  1.4029
 7044TIP3   OH248054   7.943   4.072   6.758  0.1278 -0.1838  0.5536
 7044TIP3    H148055   7.873   4.032   6.705  0.3106  3.3219 -2.8070
 7044TIP3    H248056   7.897   4.112   6.831 -0.4453 -3.1457  1.9807
 7045TIP3   OH248057   0.062   7.368   6.845  0.3076  0.6639 -0.1237
 7045TIP3    H148058   8.520   7.416   6.878 -0.4298 -1.0393  0.7238
 7045TIP3    H248059   0.136   7.414   6.884 -0.3163  1.7264 -0.1363
 7046TIP3   OH248060   6.396   7.439   0.047 -0.0031 -0.5838 -0.6243
 7046TIP3    H148061   6.481   7.401   0.023  0.4364  1.0372 -1.8930
 7046TIP3    H248062   6.332   7.379   0.010  0.6089 -1.2257 -0.6714
 7047TIP3   OH248063   1.600   3.485   6.796  0.2499  0.1797  0.5036
 7047TIP3    H148064   1.593   3.469   6.890 -2.2248 -3.2778 -0.0277
 7047TIP3    H248065   1.588   3.398   6.757 -0.7995  1.7352 -3.0329
 7048TIP3   OH248066   4.215   2.453   0.483  0.2090 -0.2306 -0.7881
 7048TIP3    H148067   4.273   2.418   0.415 -0.3341 -1.1376 -0.8067
 7048TIP3    H248068   4.220   2.389   0.554 -2.6082 -1.7198 -1.7500
 7049TIP3   OH248069   3.510   8.028   1.169 -0.6069 -0.2911 -0.1395
 7049TIP3    H148070   3.503   8.120   1.143 -1.2373 -0.3488 -0.2064
 7049TIP3    H248071   3.547   8.031   1.257 -0.4535  0.0218 -0.2120
 7050TIP3   OH248072   7.925   1.356   0.914  0.0787  0.0572 -0.1751
 7050TIP3    H148073   7.916   1.271   0.872 -1.1950 -0.0379  0.2236
 7050TIP3    H248074   8.015   1.382   0.899  0.5245 -1.4244 -0.1873
 7051TIP3   OH248075   6.037   6.964   6.416 -0.3834  0.3256 -0.1318
 7051TIP3    H148076   6.104   7.013   6.463  0.2561  0.4575 -1.1362
 7051TIP3    H248077   6.016   7.018   6.340 -1.9007  0.4474  0.3347
 7052TIP3   OH248078   3.479   6.726   0.348  0.2402 -0.1102 -0.2624
 7052TIP3    H148079   3.527   6.644   0.354  1.2585  0.5740  1.5720
 7052TIP3    H248080   3.509   6.777   0.423  0.6135  2.4486 -2.0094
 7053TIP3   OH248081   5.677   3.644   6.148  0.4707  0.6729  0.1186
 7053TIP3    H148082   5.648   3.559   6.115 -0.5727  0.7982  0.6577
 7053TIP3    H248083   5.768   3.651   6.119  1.0256 -1.2153  1.1780
 7054TIP3   OH248084   2.216   7.133   6.501  0.1887 -0.5157 -0.3954
 7054TIP3    H148085   2.281   7.130   6.571  0.2284  0.2103 -0.3908
 7054TIP3    H248086   2.234   7.215   6.455  0.4608 -1.1975 -1.5465
 7055TIP3   OH248087   4.599   1.509   6.244 -0.1204 -0.3862 -0.1274
 7055TIP3    H148088   4.563   1.501   6.155  1.3426  0.5244 -0.8463
 7055TIP3    H248089   4.566   1.431   6.290 -0.0368 -1.4574 -1.7814
 7056TIP3   OH248090   5.377   5.055   6.119 -0.5098 -0.4496  0.2229
 7056TIP3    H148091   5.460   5.074   6.076 -0.2008 -1.1157  0.5074
 7056TIP3    H248092   5.313   5.053   6.048 -0.0518 -1.2541 -0.1753
 7057TIP3   OH248093   7.761   3.872   1.799 -0.1551 -0.0908  0.2533
 7057TIP3    H148094   7.685   3.886   1.856 -0.8330 -0.0897 -0.6280
 7057TIP3    H248095   7.836   3.871   1.859 -0.7523  0.7784  1.0496
 7058TIP3   OH248096   4.549   3.085   0.490  0.1840  0.1410  0.2688
 7058TIP3    H148097   4.588   3.160   0.534 -0.5459 -1.2163  3.5400
 7058TIP3    H248098   4.543   3.111   0.398  0.7681  3.6697  1.0988
 7059TIP3   OH248099   5.302   7.604   1.578 -0.0185  0.3910 -0.1166
 7059TIP3    H148100   5.395   7.611   1.559 -0.2309  0.7637 -1.0619
 7059TIP3    H248101   5.296   7.612   1.673  0.7345  2.2900 -0.1995
 7060TIP3   OH248102   2.197   5.831   5.066 -0.4111  0.3735 -0.3221
 7060TIP3    H148103   2.231   5.918   5.088 -2.2098  0.9670  0.2387
 7060TIP3    H248104   2.253   5.771   5.114  0.6687  1.2093 -0.4665
 7061TIP3   OH248105   1.069   6.880   6.169 -0.1057  0.3319  0.1313
 7061TIP3    H148106   1.074   6.800   6.116 -1.8967  1.2399 -1.5398
 7061TIP3    H248107   1.140   6.935   6.137  0.7916 -0.3299  0.9133
 7062TIP3   OH248108   2.437   2.416   6.803 -0.1713  0.7347 -0.0198
 7062TIP3    H148109   2.378   2.348   6.836  1.3526  1.0330  3.8430
 7062TIP3    H248110   2.488   2.373   6.734 -2.2416 -0.6030 -0.8329
 7063TIP3   OH248111   2.666   6.921   0.825  0.6338  1.1571  0.1471
 7063TIP3    H148112   2.691   6.908   0.916  2.5650 -1.3071 -0.6305
 7063TIP3    H248113   2.571   6.908   0.824  0.9179 -1.9520  1.4315
 7064TIP3   OH248114   5.725   6.655   0.351  0.0199 -0.4103 -0.3943
 7064TIP3    H148115   5.676   6.697   0.421  1.8740 -1.2569  1.5070
 7064TIP3    H248116   5.801   6.711   0.336  0.4190 -1.0076 -0.6720
 7065TIP3   OH248117   4.153   8.016   6.782 -0.3665  0.3467 -0.3521
 7065TIP3    H148118   4.198   7.940   6.747 -0.9030 -0.2168  0.1525
 7065TIP3    H248119   4.170   8.086   6.719 -0.1546 -0.2773 -0.9947
 7066TIP3   OH248120   3.340   4.567   0.182 -0.3521  0.1819 -0.6759
 7066TIP3    H148121   3.373   4.649   0.219 -1.6277  1.1739 -1.6711
 7066TIP3    H248122   3.302   4.592   0.098  0.2121 -1.6126 -1.5148
 7067TIP3   OH248123   4.079   7.803   0.057 -0.1487  0.4753 -0.3109
 7067TIP3    H148124   4.117   7.723   0.019  1.0953  2.3092 -3.3036
 7067TIP3    H248125   4.116   7.807   0.145  1.6934 -1.0275 -0.9314
 7068TIP3   OH248126   8.149   8.035   0.394 -0.4708  0.3153  0.5728
 7068TIP3    H148127   8.083   8.104   0.398 -0.8082  0.3721 -3.1658
 7068TIP3    H248128   8.232   8.082   0.387 -0.6344  0.3774 -1.1880
 7069TIP3   OH248129   1.675   1.083   0.816  0.1240  0.3013 -0.6496
 7069TIP3    H148130   1.682   1.023   0.891 -2.1555 -0.2143 -0.8042
 7069TIP3    H248131   1.704   1.031   0.741  0.5748  0.2205 -0.4272
 7070TIP3   OH248132   3.831   1.894   5.889 -0.3699 -0.0051 -0.7830
 7070TIP3    H148133   3.918   1.926   5.864  0.1046 -0.0583  0.6808
 7070TIP3    H248134   3.770   1.956   5.851  0.4378  1.4267  0.1756
 7071TIP3   OH248135   0.568   7.040   1.507  0.5334 -0.5725 -0.0250
 7071TIP3    H148136   0.606   7.115   1.552 -0.0008 -0.0971 -0.3500
 7071TIP3    H248137   0.477   7.065   1.490  0.5844 -0.9297 -0.9215
 7072TIP3   OH248138   8.002   5.831   0.775 -0.1741  0.1618  0.3389
 7072TIP3    H148139   8.088   5.789   0.777 -0.5407 -0.5818  0.9578
 7072TIP3    H248140   7.964   5.805   0.691  0.3108  0.7411 -0.0723
 7073TIP3   OH248141   2.024   1.996   0.805 -0.5123  0.1559  0.2772
 7073TIP3    H148142   2.073   2.076   0.784 -1.1261 -0.1045 -2.6931
 7073TIP3    H248143   1.984   2.013   0.890  1.5886  1.8906  0.9984
 7074TIP3   OH248144   2.453   2.291   5.362 -0.1742  0.1958 -0.0674
 7074TIP3    H148145   2.369   2.260   5.330 -0.3426  0.1363  0.4162
 7074TIP3    H248146   2.517   2.226   5.332 -0.1202  0.8433 -1.4358
 7075TIP3   OH248147   1.078   2.886   6.516 -0.5032 -0.3179  0.0332
 7075TIP3    H148148   1.088   2.795   6.544  1.2427  0.3358  1.7979
 7075TIP3    H248149   0.985   2.905   6.528 -0.7355 -1.6248  0.4158
 7076TIP3   OH248150   5.933   5.664   1.390  0.4485  0.3012 -0.2473
 7076TIP3    H148151   5.978   5.619   1.462 -0.7507 -0.2864  0.1604
 7076TIP3    H248152   5.957   5.756   1.401 -0.6733  0.4311  1.6834
 7077TIP3   OH248153   2.782   6.421   0.353  0.6735  0.0672 -0.3199
 7077TIP3    H148154   2.860   6.433   0.299  0.4089 -1.5023 -1.0785
 7077TIP3    H248155   2.711   6.406   0.291  0.0974 -0.3719  0.4268
 7078TIP3   OH248156   3.246   8.156   6.000  0.1175  0.0367 -0.0724
 7078TIP3    H148157   3.270   8.085   6.060  2.0259  0.6823  0.0028
 7078TIP3    H248158   3.224   8.111   5.918  2.1138 -0.6674 -0.2848
 7079TIP3   OH248159   7.743   1.000   6.240  0.1942 -0.0375 -0.2374
 7079TIP3    H148160   7.689   0.967   6.312  1.2875  0.1665  0.7095
 7079TIP3    H248161   7.684   1.056   6.190 -1.1809 -1.9162 -0.8110
 7080TIP3   OH248162   6.181   3.854   1.652 -0.3487  0.5736  0.0341
 7080TIP3    H148163   6.232   3.923   1.696 -0.3101  0.8104 -0.3751
 7080TIP3    H248164   6.090   3.875   1.672 -0.2613 -0.4762  1.6887
 7081TIP3   OH248165   1.765   0.735   0.319  0.2466  0.1404  0.1027
 7081TIP3    H148166   1.751   0.690   0.235 -2.0479 -0.0732  0.5481
 7081TIP3    H248167   1.836   0.686   0.361 -0.3040 -1.3461 -0.6233
 7082TIP3   OH248168   7.765   4.853   1.143 -0.0347 -0.2624 -0.0798
 7082TIP3    H148169   7.673   4.836   1.122 -0.1372  1.5061 -1.3261
 7082TIP3    H248170   7.762   4.909   1.221 -0.1594  1.1722 -1.0598
 7083TIP3   OH248171   3.652   7.970   0.601 -0.4578 -0.5057 -0.2642
 7083TIP3    H148172   3.645   7.921   0.519 -0.7978 -1.6733  0.4494
 7083TIP3    H248173   3.631   8.060   0.576  1.6113 -0.3894 -1.8723
 7084TIP3   OH248174   0.876   2.605   7.053 -0.3065 -0.4321 -0.2316
 7084TIP3    H148175   0.948   2.622   0.043 -0.4053  0.9636 -0.4769
 7084TIP3    H248176   0.830   2.530   0.020  1.5447 -1.6879 -0.3296
 7085TIP3   OH248177   7.352   4.212   1.098 -0.1659  0.5110  0.0772
 7085TIP3    H148178   7.446   4.223   1.104 -0.3297  1.7530  0.7341
 7085TIP3    H248179   7.338   4.118   1.104  0.9678  0.3784  0.9957
 7086TIP3   OH248180   3.270   3.223   0.580 -0.1148 -0.0302  0.1886
 7086TIP3    H148181   3.282   3.315   0.602 -1.3722  0.7911 -2.1420
 7086TIP3    H248182   3.355   3.183   0.598  0.3381  1.4810  1.6514
 7087TIP3   OH248183   5.270   8.351   0.366 -0.1918  0.1244 -0.3545
 7087TIP3    H148184   5.193   8.386   0.410  0.4298 -0.0680  0.9236
 7087TIP3    H248185   5.238   8.320   0.281 -1.3618  0.7416 -0.1456
 7088TIP3   OH248186   0.513   1.972   7.013 -0.5229  0.1471  0.2361
 7088TIP3    H148187   0.524   2.011   6.927  0.8042  1.2820  0.8773
 7088TIP3    H248188   0.422   1.941   7.015 -0.5759  0.1275 -1.5327
 7089TIP3   OH248189   3.051   3.784   5.917  0.3275 -0.2219 -0.6673
 7089TIP3    H148190   3.050   3.834   5.835  0.9740  0.3584 -0.3318
 7089TIP3    H248191   3.133   3.735   5.913  0.4517 -0.0454 -0.2808
 7090TIP3   OH248192   1.996   2.521   6.415  0.3070  0.6558  0.2460
 7090TIP3    H148193   2.058   2.496   6.345 -0.4382  0.5457 -0.3905
 7090TIP3    H248194   1.910   2.496   6.380  0.0460 -0.8433  1.8415
 7091TIP3   OH248195   7.259   3.848   1.594  0.2605 -0.2067 -0.0141
 7091TIP3    H148196   7.237   3.930   1.639  0.9805  0.7228 -1.2732
 7091TIP3    H248197   7.273   3.785   1.665 -3.8124 -0.2705  0.9500
 7092TIP3   OH248198   5.388   6.697   5.895 -0.3798  0.0399  0.0309
 7092TIP3    H148199   5.340   6.617   5.877  1.0325 -0.2582 -3.2366
 7092TIP3    H248200   5.326   6.767   5.875 -0.4545 -0.3002 -0.9748
 7093TIP3   OH248201   6.469   7.301   5.690 -0.5315  0.0934 -0.4968
 7093TIP3    H148202   6.423   7.283   5.608 -1.1211  0.4350 -0.2418
 7093TIP3    H248203   6.408   7.275   5.759  0.0150 -0.3282 -0.1600
 7094TIP3   OH248204   3.767   3.723   5.590  0.2217 -0.0607 -0.0043
 7094TIP3    H148205   3.721   3.668   5.527 -0.5256  0.6645 -0.1174
 7094TIP3    H248206   3.805   3.662   5.653 -1.3489 -0.6761  0.3923
 7095TIP3   OH248207   4.965   0.486   6.750 -0.2560 -0.0666 -0.1952
 7095TIP3    H148208   4.910   0.551   6.707 -0.0308  0.4751  0.3159
 7095TIP3    H248209   4.924   0.472   6.835  0.7060  0.7887  0.4286
 7096TIP3   OH248210   7.129   3.703   0.790 -0.4830  0.3737  0.6636
 7096TIP3    H148211   7.212   3.701   0.742  0.0087  2.5316  1.3138
 7096TIP3    H248212   7.146   3.654   0.870  0.1504  0.7152  0.7443
 7097TIP3   OH248213   8.051   1.277   5.538  0.1192  0.3904  0.5428
 7097TIP3    H148214   7.965   1.262   5.500  0.1872  0.3022  0.4216
 7097TIP3    H248215   8.087   1.190   5.554 -0.0665  0.4287  1.1772
 7098TIP3   OH248216   7.074   3.876   5.038  0.6544  0.3489  0.9992
 7098TIP3    H148217   7.107   3.954   5.083 -0.6404  1.7004 -0.2846
 7098TIP3    H248218   7.116   3.803   5.083  1.0204  1.7128  3.0008
 7099TIP3   OH248219   6.288   7.479   6.744 -0.4891 -0.1853  0.2748
 7099TIP3    H148220   6.354   7.436   6.799 -0.2614  0.1340  0.2464
 7099TIP3    H248221   6.311   7.453   6.655  0.2079  0.7540  0.1724
 7100TIP3   OH248222   1.549   6.824   1.051  0.4220  0.2184  0.2178
 7100TIP3    H148223   1.603   6.842   1.128  0.1828  1.1285  0.1801
 7100TIP3    H248224   1.536   6.729   1.053  1.1862  0.1134  0.7807
 7101TIP3   OH248225   5.352   0.317   0.653  0.0977  0.6807 -0.0394
 7101TIP3    H148226   5.321   0.244   0.706  1.8573 -0.3506 -0.3131
 7101TIP3    H248227   5.443   0.330   0.681 -0.0993  2.6369 -0.1744
 7102TIP3   OH248228   0.283   0.882   5.304 -0.0627 -0.2461 -0.3860
 7102TIP3    H148229   0.223   0.807   5.295 -0.1508 -0.2709  0.3467
 7102TIP3    H248230   0.285   0.921   5.217 -2.7352  0.9602  0.0026
 7103TIP3   OH248231   3.586   7.167   7.063  0.0246  0.1198 -0.5033
 7103TIP3    H148232   3.618   7.150   0.080  1.6070 -1.3919 -1.3299
 7103TIP3    H248233   3.514   7.229   0.005  0.9908  0.8722  1.7245
 7104TIP3   OH248234   8.142   7.681   6.176  0.0268  0.2319 -0.4987
 7104TIP3    H148235   8.143   7.727   6.260 -0.3640 -0.6351 -0.0064
 7104TIP3    H248236   8.235   7.672   6.152  0.2349 -1.0147  0.6914
 7105TIP3   OH248237   6.916   4.686   2.118 -0.3951 -0.1462 -0.0716
 7105TIP3    H148238   6.969   4.619   2.161 -0.6307 -0.5406 -0.3872
 7105TIP3    H248239   6.980   4.743   2.074 -0.1929 -0.1527  0.2127
 7106TIP3   OH248240   5.483   8.353   5.503 -0.1099  0.6044  0.1838
 7106TIP3    H148241   5.476   8.258   5.491 -1.3400  0.8091 -1.0179
 7106TIP3    H248242   5.409   8.388   5.453  1.8066  2.3520 -1.5954
 7107TIP3   OH248243   1.539   0.757   6.424 -0.5156  0.2358  0.3224
 7107TIP3    H148244   1.544   0.734   6.517  0.0046  0.3318  0.3229
 7107TIP3    H248245   1.510   0.848   6.423 -1.2400  0.0115  0.3643
 7108TIP3   OH248246   1.482   2.066   6.381  0.8104  0.0055 -0.2219
 7108TIP3    H148247   1.466   2.123   6.456 -0.2385  0.1836 -0.5655
 7108TIP3    H248248   1.463   2.120   6.304  0.3103 -0.6443 -0.5670
 7109TIP3   OH248249   1.104   4.425   1.385 -0.3603 -0.1770 -0.2207
 7109TIP3    H148250   1.141   4.495   1.439 -0.6812 -0.2964  0.1642
 7109TIP3    H248251   1.067   4.363   1.449  0.2337 -0.8737 -0.5387
 7110TIP3   OH248252   6.459   0.356   0.694 -0.3755  0.3875 -0.4100
 7110TIP3    H148253   6.452   0.441   0.736 -3.8591  0.6667 -1.2596
 7110TIP3    H248254   6.458   0.376   0.600 -0.1934 -0.5584 -0.6218
 7111TIP3   OH248255   2.519   1.816   0.270  0.1812  0.0264  0.0114
 7111TIP3    H148256   2.548   1.725   0.261 -0.7085 -0.5025  2.0860
 7111TIP3    H248257   2.596   1.862   0.303  0.2328 -0.2503  0.2758
 7112TIP3   OH248258   3.601   2.108   1.130  0.0513 -0.1460 -0.0306
 7112TIP3    H148259   3.691   2.075   1.124  0.0151 -0.3883  0.7101
 7112TIP3    H248260   3.566   2.099   1.041  1.7285  2.7885 -1.1299
 7113TIP3   OH248261   2.385   5.277   0.859 -0.1041 -0.0653  0.2340
 7113TIP3    H148262   2.359   5.185   0.864  0.4600 -0.4217 -2.2332
 7113TIP3    H248263   2.322   5.318   0.800  0.8441  0.6438 -0.3251
 7114TIP3   OH248264   6.638   2.387   5.870  0.1222 -0.0939 -0.0428
 7114TIP3    H148265   6.624   2.419   5.781  0.4094 -0.2849 -0.1564
 7114TIP3    H248266   6.574   2.316   5.880  0.2106 -0.1903 -0.1579
 7115TIP3   OH248267   3.678   1.525   5.224  0.0011 -0.2453 -0.1888
 7115TIP3    H148268   3.596   1.506   5.180  0.0592  1.9683 -1.3783
 7115TIP3    H248269   3.706   1.441   5.260 -2.2176 -1.2567 -0.6787
 7116TIP3   OH248270   2.272   3.363   5.050  0.8385 -0.1691 -0.1167
 7116TIP3    H148271   2.328   3.439   5.031  0.4617 -0.2890 -1.9517
 7116TIP3    H248272   2.310   3.293   4.997 -0.0192 -0.7023 -0.0323
 7117TIP3   OH248273   0.895   0.820   6.048  0.1684  0.3529  0.3177
 7117TIP3    H148274   0.891   0.888   5.980  0.4066 -2.1572 -2.3826
 7117TIP3    H248275   0.979   0.777   6.035 -0.3371 -1.0345  1.3768
 7118TIP3   OH248276   0.008   2.719   0.256  0.1418 -0.2221  0.5191
 7118TIP3    H148277   0.071   2.675   0.200 -0.1219 -1.3004  1.0555
 7118TIP3    H248278   8.463   2.724   0.204  0.3012  0.0538  0.2935
 7119TIP3   OH248279   8.443   7.673   0.768 -0.1763  0.1831  0.2660
 7119TIP3    H148280   8.389   7.600   0.738  1.0076 -0.4054 -0.5185
 7119TIP3    H248281   8.461   7.724   0.689  1.2101 -0.1849  0.3162
 7120TIP3   OH248282   6.877   1.809   0.766 -0.0747  0.0256  0.3808
 7120TIP3    H148283   6.837   1.740   0.714  0.8577 -0.5175  0.3607
 7120TIP3    H248284   6.930   1.762   0.831  1.8011  0.6964 -0.5912
 7121TIP3   OH248285   6.914   5.159   1.326  0.3302  0.0177  0.4997
 7121TIP3    H148286   7.005   5.185   1.343  0.0818  0.5292  1.1050
 7121TIP3    H248287   6.884   5.122   1.409  0.4378 -1.5557 -0.1334
 7122TIP3   OH248288   4.858   7.052   0.472  0.6810  0.1640  0.0082
 7122TIP3    H148289   4.782   7.068   0.417 -0.8867 -0.1538  1.9762
 7122TIP3    H248290   4.932   7.089   0.423 -0.8123  1.0261 -1.6761
 7123TIP3   OH248291   7.037   3.662   0.280  0.2339 -0.0599 -0.4079
 7123TIP3    H148292   7.045   3.681   0.373 -0.0674 -1.2015 -0.1373
 7123TIP3    H248293   6.945   3.675   0.260  0.1357 -0.6640 -0.3500
 7124TIP3   OH248294   2.277   3.771   5.871 -0.0723  0.2746 -0.1737
 7124TIP3    H148295   2.196   3.779   5.822 -1.3769  1.9003  2.0364
 7124TIP3    H248296   2.343   3.813   5.816 -1.5445  2.4144 -0.4543
 7125TIP3   OH248297   4.808   0.910   6.434  0.7693  0.0590  0.0194
 7125TIP3    H148298   4.869   0.928   6.362 -0.6673  1.5438 -0.9162
 7125TIP3    H248299   4.745   0.848   6.397 -0.2084  1.1356 -0.2018
 7126TIP3   OH248300   0.693   2.538   4.983  0.1481  0.7306 -0.7350
 7126TIP3    H148301   0.745   2.486   5.045 -0.0220  2.1617  0.6735
 7126TIP3    H248302   0.737   2.622   4.980  0.0808  0.7315 -2.5288
 7127TIP3   OH248303   3.896   7.718   5.221 -0.0323  0.0905 -0.1439
 7127TIP3    H148304   3.862   7.805   5.240 -0.7494 -0.5537  1.7892
 7127TIP3    H248305   3.982   7.715   5.264  0.2292 -0.0011 -0.6549
 7128TIP3   OH248306   3.561   7.615   0.865 -0.5739 -0.1065 -1.0558
 7128TIP3    H148307   3.629   7.591   0.928 -0.9775  0.5831 -0.3433
 7128TIP3    H248308   3.578   7.560   0.789  2.2283  1.6093 -1.8354
 7129TIP3   OH248309   0.537   3.672   6.925 -0.2661  0.0664  0.2990
 7129TIP3    H148310   0.559   3.639   6.837  2.2609 -1.2187  1.2923
 7129TIP3    H248311   0.478   3.605   6.961 -1.5915  0.7715 -0.4957
 7130TIP3   OH248312   2.549   2.381   1.103  0.9389  0.0920 -0.4752
 7130TIP3    H148313   2.546   2.464   1.149 -1.0735 -0.4703  0.5526
 7130TIP3    H248314   2.626   2.336   1.136  0.8568  0.6978  0.5600
 7131TIP3   OH248315   4.936   7.529   5.881 -0.3932 -0.5253  0.0967
 7131TIP3    H148316   5.011   7.522   5.822  0.3954 -0.1219  1.0203
 7131TIP3    H248317   4.870   7.576   5.831  0.3091 -0.0903 -0.4348
 7132TIP3   OH248318   4.429   3.223   0.034 -0.3497  0.6760  0.2893
 7132TIP3    H148319   4.351   3.167   0.042 -1.0248  1.4789 -0.3587
 7132TIP3    H248320   4.489   3.191   0.101 -1.1820 -0.0654  0.7061
 7133TIP3   OH248321   4.499   4.731   6.544 -0.2025 -0.4407  0.2473
 7133TIP3    H148322   4.546   4.682   6.477  1.0686  2.1654 -0.9015
 7133TIP3    H248323   4.503   4.675   6.622  1.6598 -1.8733 -0.7967
 7134TIP3   OH248324   3.209   2.496   0.827  0.2879  0.3594 -0.2632
 7134TIP3    H148325   3.132   2.484   0.773 -1.3541  1.6774  1.6374
 7134TIP3    H248326   3.226   2.591   0.825  0.9256  0.2791  0.5394
 7135TIP3   OH248327   4.464   6.492   1.237 -0.0031 -0.1543 -0.3055
 7135TIP3    H148328   4.519   6.564   1.269  0.7332 -0.8253 -0.0181
 7135TIP3    H248329   4.475   6.493   1.142  0.9703 -0.6260 -0.2130
 7136TIP3   OH248330   4.623   7.760   5.854  0.3897  0.2459 -0.2999
 7136TIP3    H148331   4.698   7.722   5.807  0.4834  0.8633 -0.6719
 7136TIP3    H248332   4.555   7.769   5.787  0.9383  2.2869 -0.6577
 7137TIP3   OH248333   1.223   2.466   5.894  0.2542 -0.6731 -0.8087
 7137TIP3    H148334   1.223   2.557   5.863  2.5082 -0.8880 -1.6435
 7137TIP3    H248335   1.149   2.425   5.850  0.4083  0.2840 -2.0032
 7138TIP3   OH248336   1.344   1.263   6.009  0.4640  0.8013  0.5647
 7138TIP3    H148337   1.350   1.348   6.054 -0.4643 -0.3633  3.0941
 7138TIP3    H248338   1.279   1.277   5.941 -1.3378  1.6481  2.3452
 7139TIP3   OH248339   3.499   7.453   6.349  0.0465  0.1198 -0.5406
 7139TIP3    H148340   3.576   7.477   6.401 -1.0151 -0.9781  1.7295
 7139TIP3    H248341   3.460   7.536   6.322  0.6158  0.7538  0.5310
 7140TIP3   OH248342   7.292   4.925   6.679 -0.4605  0.2072 -0.6195
 7140TIP3    H148343   7.332   4.899   6.762 -1.3712  2.1003  0.4818
 7140TIP3    H248344   7.364   4.920   6.615  0.3022 -1.0915  0.3019
 7141TIP3   OH248345   7.150   5.392   6.418 -0.2238 -0.1046  0.4037
 7141TIP3    H148346   7.175   5.314   6.468 -2.5135 -1.0761  0.1753
 7141TIP3    H248347   7.127   5.457   6.485  2.2725  0.6658  0.6061
 7142TIP3   OH248348   8.091   1.563   0.287 -0.7756  0.3154 -0.1041
 7142TIP3    H148349   8.146   1.491   0.258 -0.3341  0.2604  0.8394
 7142TIP3    H248350   8.141   1.606   0.357 -0.7592  1.9092 -1.0445
 7143TIP3   OH248351   4.944   1.442   0.674 -0.0978 -0.5363  0.2358
 7143TIP3    H148352   4.962   1.407   0.762 -2.7811 -0.4837  0.9013
 7143TIP3    H248353   4.941   1.537   0.687 -0.1097 -0.5071  0.0112
 7144TIP3   OH248354   7.582   4.650   2.182 -0.4006 -0.1351  0.2568
 7144TIP3    H148355   7.491   4.667   2.158 -1.3633 -0.7523  3.1306
 7144TIP3    H248356   7.578   4.577   2.243  2.0191  0.0232  0.7071
 7145TIP3   OH248357   4.485   1.852   5.698 -0.3134  1.2321  0.0026
 7145TIP3    H148358   4.411   1.811   5.652  0.2366  0.3261 -0.0999
 7145TIP3    H248359   4.482   1.815   5.786  0.5426  0.5082 -0.2673
 7146TIP3   OH248360   1.104   8.216   1.705 -0.4115  0.3291 -0.0134
 7146TIP3    H148361   1.009   8.226   1.700 -0.8089 -1.1959  2.7074
 7146TIP3    H248362   1.120   8.126   1.677  0.1461  0.3208  0.3148
 7147TIP3   OH248363   3.352   8.502   0.324  0.6133 -0.1157  0.6271
 7147TIP3    H148364   3.361   8.462   0.410 -0.1110 -0.3592  0.5904
 7147TIP3    H248365   3.426   0.029   0.319  0.6349 -0.0647  1.4340
 7148TIP3   OH248366   4.091   3.505   0.497  0.5403 -0.1202  0.6580
 7148TIP3    H148367   4.074   3.460   0.413  1.8318 -0.0965  0.3607
 7148TIP3    H248368   4.010   3.554   0.514 -0.8077 -2.2465  0.8145
 7149TIP3   OH248369   1.265   5.231   5.940 -0.9648  0.4521 -0.1215
 7149TIP3    H148370   1.284   5.315   5.897  0.1260  0.0488 -0.4670
 7149TIP3    H248371   1.194   5.250   6.001 -0.9680  1.5506 -0.4564
 7150TIP3   OH248372   1.071   6.377   6.119  0.4135  0.3546  0.2248
 7150TIP3    H148373   0.983   6.338   6.119 -1.7490  4.6242  0.2865
 7150TIP3    H248374   1.123   6.319   6.175 -1.9427 -2.9929 -0.6939
 7151TIP3   OH248375   7.424   0.778   1.178  0.3585  0.2618 -0.2806
 7151TIP3    H148376   7.485   0.842   1.141 -1.0630  0.6280 -2.0886
 7151TIP3    H248377   7.368   0.829   1.236  0.6516  0.2352  0.0297
 7152TIP3   OH248378   4.813   5.039   0.069  0.2217 -0.3171 -0.7785
 7152TIP3    H148379   4.823   4.945   0.084  1.5675 -0.0005  0.5001
 7152TIP3    H248380   4.811   5.049   7.045  4.0574 -1.3177 -1.0905
 7153TIP3   OH248381   0.513   3.341   0.265 -0.0610 -0.0840  0.6188
 7153TIP3    H148382   0.441   3.279   0.275 -0.5188 -0.3337 -2.9089
 7153TIP3    H248383   0.568   3.304   0.197  1.7556  1.5797  1.0879
 7154TIP3   OH248384   1.850   3.085   0.970 -0.0516 -0.0242 -0.7798
 7154TIP3    H148385   1.861   3.101   1.064  1.8368  0.4743 -1.0560
 7154TIP3    H248386   1.755   3.075   0.959 -0.5674  2.3030  0.8066
 7155TIP3   OH248387   8.019   5.248   0.980 -0.0137  0.4775 -0.2516
 7155TIP3    H148388   8.054   5.267   0.893  1.0824 -0.1586  0.0282
 7155TIP3    H248389   8.029   5.153   0.989 -3.9672 -0.1885 -1.0402
 7156TIP3   OH248390   0.201   2.491   0.258 -0.6092  1.1565  0.3322
 7156TIP3    H148391   0.245   2.472   0.341 -0.8144 -0.7075  0.0663
 7156TIP3    H248392   0.237   2.575   0.230  1.2979  0.6421  1.1062
 7157TIP3   OH248393   4.600   1.700   0.058 -0.5526  0.3444  0.0563
 7157TIP3    H148394   4.575   1.641   7.058  0.8078  0.8306 -0.8756
 7157TIP3    H248395   4.622   1.782   0.015  1.0667  0.4205  0.9344
 7158TIP3   OH248396   6.281   8.180   6.496 -0.0130  0.8151 -0.0697
 7158TIP3    H148397   6.239   8.177   6.410 -0.9129 -2.2123  0.3474
 7158TIP3    H248398   6.253   8.263   6.534 -0.2812  1.8201 -2.3539
 7159TIP3   OH248399   6.315   7.815   5.782  0.4939 -0.5755 -0.9804
 7159TIP3    H148400   6.397   7.807   5.733 -0.8473 -2.7982 -3.1079
 7159TIP3    H248401   6.294   7.725   5.808 -1.3423 -0.0935 -0.6924
 7160TIP3   OH248402   7.067   6.357   5.224 -0.6892 -0.3430 -0.1133
 7160TIP3    H148403   6.974   6.380   5.220 -0.1782  1.8034 -2.3135
 7160TIP3    H248404   7.111   6.440   5.239  0.9650 -1.0013 -1.0830
 7161TIP3   OH248405   4.702   6.808   2.018  0.0796  0.2581  0.1190
 7161TIP3    H148406   4.650   6.842   2.091  0.1746  1.4239 -0.3316
 7161TIP3    H248407   4.781   6.862   2.017 -0.1146  0.5513 -1.1034
 7162TIP3   OH248408   3.665   6.871   1.322 -0.0182 -0.4558 -0.1871
 7162TIP3    H148409   3.644   6.837   1.409  0.4919  1.3597  0.7053
 7162TIP3    H248410   3.601   6.940   1.307  0.6852  0.1036 -0.6937
 7163TIP3   OH248411   6.343   5.919   0.455 -0.5470 -0.4719 -0.0155
 7163TIP3    H148412   6.262   5.950   0.415 -0.4345  0.3117  0.3599
 7163TIP3    H248413   6.341   5.953   0.544  0.5700  0.2366 -0.2467
 7164TIP3   OH248414   5.715   1.590   0.376  0.1148 -0.4203 -0.0898
 7164TIP3    H148415   5.646   1.632   0.324 -1.9639 -1.8204  1.3829
 7164TIP3    H248416   5.706   1.497   0.356  1.2407 -0.6920  0.5849
 7165TIP3   OH248417   0.271   2.529   6.069  0.1788 -0.0877  0.1892
 7165TIP3    H148418   0.194   2.527   6.125  0.1006 -1.2168  0.0620
 7165TIP3    H248419   0.297   2.437   6.060  0.7222  0.1529 -0.8909
 7166TIP3   OH248420   0.102   3.042   5.983 -0.0184 -0.1129  0.1714
 7166TIP3    H148421   0.190   3.005   5.978  0.0735  0.2070 -0.6289
 7166TIP3    H248422   0.083   3.044   6.077  1.3232  0.9655  0.4649
 7167TIP3   OH248423   3.517   5.303   1.117  0.0641 -0.3452 -0.2044
 7167TIP3    H148424   3.587   5.301   1.182 -1.9046 -0.6391  2.0295
 7167TIP3    H248425   3.489   5.212   1.109  0.0708 -0.2636 -1.2541
 7168TIP3   OH248426   5.402   1.607   6.801 -0.0310 -0.1124  0.6817
 7168TIP3    H148427   5.442   1.693   6.789 -0.6550  0.5439  2.9004
 7168TIP3    H248428   5.373   1.582   6.713  1.3110  1.3365 -0.2264
 7169TIP3   OH248429   7.198   0.879   6.207 -0.5417  0.9010 -0.2728
 7169TIP3    H148430   7.166   0.832   6.130  0.0940 -1.0367  0.5751
 7169TIP3    H248431   7.119   0.894   6.260 -0.7874  0.9784 -0.6593
 7170TIP3   OH248432   1.559   7.754   6.055 -0.4064 -1.1538 -0.4072
 7170TIP3    H148433   1.584   7.814   5.984 -3.2883  0.8547  0.1052
 7170TIP3    H248434   1.640   7.739   6.103  0.7287  1.2199 -1.4220
 7171TIP3   OH248435   2.397   0.194   6.658  0.1818 -0.1985 -0.0277
 7171TIP3    H148436   2.398   0.126   6.726 -1.5324  0.3289  0.5807
 7171TIP3    H248437   2.447   0.266   6.695 -1.7131  0.5413  1.2473
 7172TIP3   OH248438   7.074   2.244   5.612 -0.0024 -1.0535  0.4251
 7172TIP3    H148439   7.062   2.160   5.568 -0.3461  0.5225 -2.7302
 7172TIP3    H248440   7.161   2.238   5.652 -0.1976 -3.0113  0.6706
 7173TIP3   OH248441   6.518   7.420   6.539  0.2936  0.6212 -0.7419
 7173TIP3    H148442   6.577   7.495   6.546 -1.9974  2.3606  2.0857
 7173TIP3    H248443   6.530   7.372   6.621  0.8468 -1.5621 -2.0060
 7174TIP3   OH248444   5.728   1.795   6.691  0.1497 -0.0497 -0.0451
 7174TIP3    H148445   5.784   1.866   6.658 -0.7473  0.9864  0.5618
 7174TIP3    H248446   5.659   1.841   6.739 -1.5821 -1.2320 -1.2858
 7175TIP3   OH248447   4.944   4.648   1.257  0.2919  0.1017  0.4609
 7175TIP3    H148448   4.943   4.558   1.226  0.6271  0.0643  0.5509
 7175TIP3    H248449   5.011   4.649   1.326  1.2487  0.7231 -0.4514
 7176TIP3   OH248450   6.567   7.203   1.246 -0.4011 -0.0766 -0.5714
 7176TIP3    H148451   6.538   7.263   1.315  0.1246 -0.2097 -0.2305
 7176TIP3    H248452   6.657   7.230   1.227 -1.0421  1.0068 -2.3434
 7177TIP3   OH248453   0.725   5.604   6.733  0.1481 -0.3158  0.9812
 7177TIP3    H148454   0.686   5.635   6.815  0.8307 -0.0338  1.2089
 7177TIP3    H248455   0.665   5.634   6.665 -0.0260  0.1225  1.3237
 7178TIP3   OH248456   0.215   7.005   0.695  0.3036  0.8548  0.0176
 7178TIP3    H148457   0.191   6.964   0.612  3.4195 -1.0008 -0.1419
 7178TIP3    H248458   0.295   7.054   0.676  0.6645  1.0029  1.7199
 7179TIP3   OH248459   5.612   1.330   0.372  0.0550 -0.4977 -0.1937
 7179TIP3    H148460   5.591   1.266   0.304 -2.0809  1.2522 -1.3350
 7179TIP3    H248461   5.539   1.324   0.434  0.7535 -0.4185  0.6393
 7180TIP3   OH248462   1.333   5.239   0.033  0.2218 -0.2674 -0.5262
 7180TIP3    H148463   1.355   5.243   0.127 -1.6525 -0.3726 -0.0350
 7180TIP3    H248464   1.375   5.159   0.002  1.0174 -0.1395  0.1743
 7181TIP3   OH248465   4.803   0.860   1.493 -0.5247  0.3872 -0.0501
 7181TIP3    H148466   4.759   0.918   1.555 -0.2765  0.9584 -0.3996
 7181TIP3    H248467   4.799   0.773   1.533  2.7071  1.2221  2.5392
 7182TIP3   OH248468   4.761   7.995   1.641  0.2895  0.1288 -0.7692
 7182TIP3    H148469   4.784   8.000   1.733  0.5317 -0.8807 -0.7672
 7182TIP3    H248470   4.666   8.012   1.639  0.3100  0.2982 -0.3562
 7183TIP3   OH248471   2.579   2.459   1.419  0.0517 -0.2191  0.2200
 7183TIP3    H148472   2.536   2.522   1.361 -0.8349 -1.1931 -0.2071
 7183TIP3    H248473   2.601   2.510   1.497  0.8255  0.9963 -0.7526
 7184TIP3   OH248474   5.140   3.859   6.236  0.5072  0.3504 -0.0782
 7184TIP3    H148475   5.210   3.793   6.230  0.1195 -0.1890  1.0310
 7184TIP3    H248476   5.060   3.808   6.245  0.0375  0.9739 -0.6206
 7185TIP3   OH248477   1.971   1.640   1.275 -0.0927 -0.4665 -0.4426
 7185TIP3    H148478   2.065   1.628   1.294 -0.5803 -3.1954  0.6917
 7185TIP3    H248479   1.962   1.617   1.183  0.2299 -1.2261 -0.2934
 7186TIP3   OH248480   7.227   6.801   6.236  0.1200 -0.4220 -0.0546
 7186TIP3    H148481   7.220   6.848   6.319 -1.3903 -0.3617 -0.1959
 7186TIP3    H248482   7.300   6.844   6.190 -1.3670  2.0241 -0.3076
 7187TIP3   OH248483   8.500   0.344   5.589  0.2565 -0.2920  0.1779
 7187TIP3    H148484   8.463   0.370   5.505  0.3125  0.2583  0.3177
 7187TIP3    H248485   8.423   0.321   5.642 -0.0893  2.3768  0.9884
 7188TIP3   OH248486   6.330   6.654   0.327 -0.1706  0.6256 -0.2316
 7188TIP3    H148487   6.319   6.568   0.286 -0.7157 -0.5273  2.1661
 7188TIP3    H248488   6.422   6.657   0.352 -0.3279  0.4156  0.3698
 7189TIP3   OH248489   4.185   2.756   0.314 -0.1809  0.2120 -0.4528
 7189TIP3    H148490   4.183   2.748   0.219 -0.9962 -2.3594 -0.3195
 7189TIP3    H248491   4.276   2.776   0.335  0.6104 -1.7920 -1.7042
 7190TIP3   OH248492   4.404   5.935   1.055 -0.0043 -0.4159  0.0553
 7190TIP3    H148493   4.340   5.924   1.126  0.1875  0.9466  0.4712
 7190TIP3    H248494   4.412   5.848   1.016 -1.4311 -0.8044  0.5736
 7191TIP3   OH248495   5.679   0.779   0.560 -0.3679 -0.2897  0.5928
 7191TIP3    H148496   5.650   0.816   0.476 -0.0196 -1.8867 -0.2784
 7191TIP3    H248497   5.775   0.784   0.556 -0.3518 -0.2380  0.9803
 7192TIP3   OH248498   3.453   4.601   1.303  0.2419  0.3250  0.1275
 7192TIP3    H148499   3.486   4.685   1.271  1.7848 -0.8314 -1.5577
 7192TIP3    H248500   3.523   4.539   1.282 -0.9746 -1.4295  1.0451
 7193TIP3   OH248501   3.489   6.488   0.551 -0.9394 -0.2088 -0.4945
 7193TIP3    H148502   3.442   6.409   0.576 -0.5105  0.0200  1.0993
 7193TIP3    H248503   3.504   6.535   0.633  0.0260  0.8590 -1.2493
 7194TIP3   OH248504   3.739   6.391   1.406  0.1433 -0.0761  0.7695
 7194TIP3    H148505   3.665   6.339   1.376 -0.6033  0.5439  1.5275
 7194TIP3    H248506   3.706   6.441   1.480  1.0771  0.8482  0.5919
 7195TIP3   OH248507   7.820   5.462   5.365  0.2852 -0.2075  0.3331
 7195TIP3    H148508   7.877   5.416   5.427  0.6617 -0.4663 -0.1963
 7195TIP3    H248509   7.804   5.399   5.296  2.3954  0.9899 -1.3957
 7196TIP3   OH248510   6.345   6.973   6.540  0.0830  0.4313 -0.2933
 7196TIP3    H148511   6.309   7.037   6.479 -0.1751 -1.3879 -2.1606
 7196TIP3    H248512   6.428   6.947   6.501  1.5466  1.5484  1.8619
 7197TIP3   OH248513   7.787   3.373   0.907  0.3237 -0.3757 -0.3167
 7197TIP3    H148514   7.692   3.375   0.920  0.3322 -1.0010 -0.0903
 7197TIP3    H248515   7.822   3.434   0.972 -0.0795  2.1140 -2.2846
 7198TIP3   OH248516   4.615   2.208   0.210  0.0875 -0.5582 -0.4252
 7198TIP3    H148517   4.575   2.261   0.279  1.2890  0.8781 -0.7735
 7198TIP3    H248518   4.684   2.159   0.253  1.4713  1.0596 -0.7158
 7199TIP3   OH248519   2.627   3.637   5.491 -0.5971  0.0662 -0.6170
 7199TIP3    H148520   2.719   3.633   5.465 -0.2826 -0.4858  0.5641
 7199TIP3    H248521   2.579   3.632   5.408  0.4216  0.1274 -1.2275
 7200TIP3   OH248522   1.661   4.006   5.933 -0.8829 -0.1906  0.9539
 7200TIP3    H148523   1.688   4.056   6.010 -1.9260  1.5430  0.2518
 7200TIP3    H248524   1.592   3.948   5.966 -1.9221  1.1392  1.2231
 7201TIP3   OH248525   5.857   8.177   0.774 -0.2925 -0.1254 -0.4688
 7201TIP3    H148526   5.918   8.222   0.833 -1.0603  1.0167 -0.5113
 7201TIP3    H248527   5.887   8.200   0.686 -0.3926 -0.1051 -0.4977
 7202TIP3   OH248528   8.238   6.472   0.075 -0.2416  0.1122  0.1760
 7202TIP3    H148529   8.268   6.438   7.061 -0.6632 -0.6844  0.3272
 7202TIP3    H248530   8.312   6.521   0.109 -0.1232  0.5829 -0.7271
 7203TIP3   OH248531   7.063   7.414   0.188  0.4591  0.0875  0.0498
 7203TIP3    H148532   7.087   7.322   0.198 -0.7720 -0.6843 -2.9245
 7203TIP3    H248533   7.121   7.447   0.119 -0.5484  0.8814 -0.4507
 7204TIP3   OH248534   3.202   7.440   2.085 -0.8012  0.9587 -0.2784
 7204TIP3    H148535   3.150   7.363   2.063 -0.5110  0.4609  0.7268
 7204TIP3    H248536   3.155   7.513   2.045  0.6855 -0.0071 -4.2879
 7205TIP3   OH248537   8.443   7.232   1.918 -0.3933  0.3290 -0.7173
 7205TIP3    H148538   8.413   7.207   2.005  2.7677  1.5572  0.8778
 7205TIP3    H248539   8.403   7.318   1.902  0.6583  1.0722  0.5112
 7206TIP3   OH248540   4.368   3.803   0.074 -0.2062 -0.1830 -0.0096
 7206TIP3    H148541   4.421   3.855   0.013  0.7140 -0.9790  0.0850
 7206TIP3    H248542   4.421   3.725   0.091 -1.7522 -1.4165 -0.5515
 7207TIP3   OH248543   4.391   7.362   5.884  0.3756 -0.7273  0.1516
 7207TIP3    H148544   4.404   7.268   5.872 -0.0245 -0.9330  1.2099
 7207TIP3    H248545   4.331   7.387   5.813  1.0292 -1.1228 -0.5527
 7208TIP3   OH248546   0.803   3.884   0.733 -0.4353 -0.0997  0.2783
 7208TIP3    H148547   0.791   3.961   0.789  0.7249  0.0850  0.3022
 7208TIP3    H248548   0.720   3.874   0.687 -1.0009  0.4614  1.1447
 7209TIP3   OH248549   1.713   2.967   0.470 -0.4057 -0.4015  0.4345
 7209TIP3    H148550   1.638   2.952   0.412  2.0642 -1.0113 -2.9091
 7209TIP3    H248551   1.753   3.047   0.436  2.1149 -1.7341  0.0136
 7210TIP3   OH248552   7.719   0.481   0.345  0.2774  0.8525 -0.8535
 7210TIP3    H148553   7.655   0.523   0.403 -3.7320 -5.7375  0.5730
 7210TIP3    H248554   7.677   0.482   0.259 -0.3189 -0.7676 -0.6055
 7211TIP3   OH248555   2.712   6.041   0.420 -0.1033 -0.1666 -0.4054
 7211TIP3    H148556   2.763   6.009   0.495  0.6014 -0.2970 -0.9306
 7211TIP3    H248557   2.621   6.022   0.443 -0.4822  3.8550  2.5009
 7212TIP3   OH248558   2.353   4.455   0.044 -0.0267 -0.2680  0.7030
 7212TIP3    H148559   2.266   4.454   0.006 -0.8294  0.2683  2.4184
 7212TIP3    H248560   2.409   4.497   7.049 -1.5140  1.4409  0.4750
 7213TIP3   OH248561   2.185   3.141   6.610 -0.1193 -0.1249 -0.4021
 7213TIP3    H148562   2.190   3.080   6.536  0.1479 -0.1320 -0.3798
 7213TIP3    H248563   2.217   3.224   6.575 -1.1459  0.1900 -0.6215
 7214TIP3   OH248564   4.252   6.717   0.974  0.6179  0.0094  0.8795
 7214TIP3    H148565   4.260   6.759   1.060 -2.0736  1.3542  0.5734
 7214TIP3    H248566   4.287   6.629   0.988  3.9901  1.3827  2.2350
 7215TIP3   OH248567   3.844   5.546   5.591  0.2254 -0.3828  0.2312
 7215TIP3    H148568   3.798   5.475   5.546  0.3124 -0.6528  0.5639
 7215TIP3    H248569   3.897   5.587   5.523 -0.3325 -0.2135 -0.1098
 7216TIP3   OH248570   5.431   3.239   1.262 -0.3864 -0.3917 -0.5282
 7216TIP3    H148571   5.403   3.185   1.336  0.6046 -0.8043 -0.4369
 7216TIP3    H248572   5.372   3.216   1.191  0.3909 -2.0787 -0.6670
 7217TIP3   OH248573   5.309   3.568   2.242  0.0746  0.2734  0.5286
 7217TIP3    H148574   5.385   3.558   2.300 -0.7122  1.4662  1.8297
 7217TIP3    H248575   5.307   3.662   2.221 -0.7875  0.1838  0.1511
 7218TIP3   OH248576   5.415   2.717   6.257 -0.3706 -0.6498  0.2640
 7218TIP3    H148577   5.379   2.686   6.174  0.6530  0.4653 -0.6338
 7218TIP3    H248578   5.497   2.669   6.267  1.6677  2.1358 -1.5675
 7219TIP3   OH248579   6.448   7.874   1.067 -0.2053  0.2252 -0.3374
 7219TIP3    H148580   6.396   7.859   1.146  1.3116 -1.0872  0.4523
 7219TIP3    H248581   6.386   7.864   0.995 -1.2751 -0.1625  0.6178
 7220TIP3   OH248582   3.995   7.320   0.356  0.7288 -0.2383  0.5598
 7220TIP3    H148583   3.953   7.404   0.374 -0.5166 -1.0173  1.5289
 7220TIP3    H248584   4.065   7.340   0.295 -1.5165  1.0539 -1.7731
 7221TIP3   OH248585   3.051   7.380   1.467 -0.2867  0.2551 -0.5065
 7221TIP3    H148586   3.008   7.465   1.468 -2.4498 -0.6430  3.5143
 7221TIP3    H248587   2.985   7.320   1.430 -0.5138 -0.2859  0.7147
 7222TIP3   OH248588   6.315   8.090   0.792  0.4143  0.0663 -0.1554
 7222TIP3    H148589   6.263   8.015   0.821  1.1823 -1.5222 -2.5967
 7222TIP3    H248590   6.360   8.119   0.871 -0.5457 -1.5074  1.0327
 7223TIP3   OH248591   5.978   1.275   1.323 -0.2754 -0.3292  0.4155
 7223TIP3    H148592   5.926   1.209   1.370  0.3723  0.8863  3.0443
 7223TIP3    H248593   6.069   1.246   1.334 -0.0513  0.4938  0.7884
 7224TIP3   OH248594   7.530   2.099   6.324 -0.0933  0.3557  0.1943
 7224TIP3    H148595   7.452   2.115   6.271 -1.4450 -2.1157  1.2763
 7224TIP3    H248596   7.522   2.008   6.352  3.3334 -0.0774  0.1872
 7225TIP3   OH248597   7.565   2.294   1.872  0.3963 -0.3402 -0.1367
 7225TIP3    H148598   7.555   2.357   1.801 -0.1871  0.0906  0.3264
 7225TIP3    H248599   7.583   2.211   1.828  1.0732  0.1180 -0.7543
 7226TIP3   OH248600   4.641   3.618   5.820  1.1631 -0.2661  0.0719
 7226TIP3    H148601   4.569   3.662   5.865  0.7814  0.3585 -1.1170
 7226TIP3    H248602   4.699   3.688   5.792  0.8438 -0.5190 -1.3281
 7227TIP3   OH248603   2.425   0.018   6.862  0.3424  0.0234  0.2486
 7227TIP3    H148604   2.379   8.531   6.943 -0.2615  1.2010  0.2501
 7227TIP3    H248605   2.505   8.500   6.865  0.5164  0.3234  1.8088
 7228TIP3   OH248606   5.747   6.310   6.810 -0.0351 -0.3713 -0.0832
 7228TIP3    H148607   5.691   6.240   6.845 -1.5855  0.6156 -0.4912
 7228TIP3    H248608   5.788   6.348   6.888  0.5276 -1.4515  0.1807
 7229TIP3   OH248609   4.610   5.707   5.724 -0.2468  0.1367 -0.1104
 7229TIP3    H148610   4.620   5.794   5.685 -3.6106  1.9735  2.5218
 7229TIP3    H248611   4.552   5.660   5.664  0.5960  0.1307 -0.9343
 7230TIP3   OH248612   8.340   7.206   6.776  0.7356  0.5516 -0.1857
 7230TIP3    H148613   8.255   7.233   6.810  0.4764  0.0611 -0.4178
 7230TIP3    H248614   8.397   7.202   6.852  0.1502 -0.5944  0.2134
 7231TIP3   OH248615   1.468   3.812   5.992  0.2571 -0.4681  0.0375
 7231TIP3    H148616   1.375   3.821   5.968  0.3668  1.2478  0.0740
 7231TIP3    H248617   1.467   3.768   6.076 -0.6155  0.4364  0.5330
 7232TIP3   OH248618   3.650   3.637   1.122  0.2548 -0.1002  0.1280
 7232TIP3    H148619   3.635   3.712   1.063 -0.8510 -0.2543  0.1791
 7232TIP3    H248620   3.721   3.665   1.179 -0.9061  1.4156  0.9118
 7233TIP3   OH248621   5.023   8.124   0.483  0.3530  0.0582 -0.0204
 7233TIP3    H148622   4.966   8.132   0.406  0.0677 -0.6541  0.1085
 7233TIP3    H248623   5.034   8.030   0.494  1.6034  0.1888 -0.0679
 7234TIP3   OH248624   3.686   1.250   0.397 -0.0187  0.8058  0.0765
 7234TIP3    H148625   3.603   1.286   0.368  0.9232  0.9602 -2.7763
 7234TIP3    H248626   3.692   1.165   0.353  0.8654  0.3195  1.0835
 7235TIP3   OH248627   7.631   7.147   0.804  0.0689 -0.0875 -0.0942
 7235TIP3    H148628   7.654   7.222   0.749 -2.0216  1.1281  0.5664
 7235TIP3    H248629   7.668   7.072   0.758  1.9031  1.2814 -0.9952
 7236TIP3   OH248630   4.467   0.604   0.981  0.1608  0.6416 -0.6619
 7236TIP3    H148631   4.512   0.604   0.897  0.0385  0.8156 -0.7288
 7236TIP3    H248632   4.491   0.521   1.021  0.7934  0.8760 -0.5558
 7237TIP3   OH248633   7.850   4.898   6.226 -0.0678 -0.4923 -0.0333
 7237TIP3    H148634   7.804   4.975   6.193  1.0329  0.4676  0.6020
 7237TIP3    H248635   7.876   4.921   6.315  0.5594 -1.4829  0.0599
 7238TIP3   OH248636   0.192   0.170   5.640  0.4847 -0.0950 -0.1565
 7238TIP3    H148637   0.253   0.223   5.589  0.5960 -1.2787 -1.3257
 7238TIP3    H248638   0.106   0.205   5.619  0.6844  1.0943  0.9075
 7239TIP3   OH248639   0.847   8.389   1.055  0.2247 -0.3984 -0.2942
 7239TIP3    H148640   0.853   8.479   1.022 -2.0933  0.4546  1.3549
 7239TIP3    H248641   0.874   8.394   1.146 -1.2710 -1.0614  0.2188
 7240TIP3   OH248642   2.068   4.460   6.705 -0.2749  0.2366  0.1268
 7240TIP3    H148643   2.123   4.538   6.712  3.1953 -1.7180 -2.3285
 7240TIP3    H248644   2.074   4.418   6.790  3.4651 -0.6036 -0.3846
 7241TIP3   OH248645   8.435   2.420   6.550 -0.2512  0.1285  0.0944
 7241TIP3    H148646   8.476   2.478   6.486  1.7936 -2.3843 -1.0394
 7241TIP3    H248647   8.341   2.441   6.544  0.4098  3.8751  0.4738
 7242TIP3   OH248648   1.449   4.702   5.875 -0.4623  0.3404  0.3205
 7242TIP3    H148649   1.369   4.664   5.839 -0.1166 -0.1070  0.0134
 7242TIP3    H248650   1.448   4.793   5.845  1.0715 -0.6138 -3.0914
 7243TIP3   OH248651   6.838   6.849   6.873 -0.3994 -0.8322 -0.1867
 7243TIP3    H148652   6.918   6.896   6.852  0.8926 -2.3860  1.0090
 7243TIP3    H248653   6.843   6.769   6.820 -2.3445  0.0650 -1.8691
 7244TIP3   OH248654   5.410   7.249   6.334 -0.0151  0.5453 -0.6742
 7244TIP3    H148655   5.317   7.240   6.352  0.1060 -0.5218 -0.5132
 7244TIP3    H248656   5.419   7.223   6.242  0.5230 -2.6350  0.1504
 7245TIP3   OH248657   6.784   0.320   1.524  0.5711  0.2471 -0.0049
 7245TIP3    H148658   6.820   0.249   1.577 -1.2510 -0.2736  0.6146
 7245TIP3    H248659   6.783   0.396   1.583 -0.2211  0.0033  0.3169
 7246TIP3   OH248660   4.092   5.791   0.828  0.0241 -0.4366  0.2492
 7246TIP3    H148661   4.064   5.701   0.811  0.5716 -0.6007  0.2041
 7246TIP3    H248662   4.018   5.831   0.873 -0.2735 -0.8730  0.1507
 7247TIP3   OH248663   3.158   4.613   6.362 -0.3308  0.4058 -0.6704
 7247TIP3    H148664   3.205   4.533   6.340  0.0200  0.4270 -0.0120
 7247TIP3    H248665   3.113   4.637   6.281 -1.8496 -1.3967 -0.4412
 7248TIP3   OH248666   4.918   6.572   1.333 -0.3263 -0.2251 -0.0782
 7248TIP3    H148667   4.889   6.595   1.421 -1.0195  1.1499 -0.6310
 7248TIP3    H248668   4.841   6.587   1.278  0.4194  0.0148 -1.0843
 7249TIP3   OH248669   7.927   1.226   0.184 -0.1336  0.1584 -0.0279
 7249TIP3    H148670   8.007   1.178   0.203 -1.6235 -2.0486  1.1281
 7249TIP3    H248671   7.858   1.160   0.182 -1.9266  1.9135 -1.3016
 7250TIP3   OH248672   3.004   7.409   6.717  0.1206  0.0133  0.0860
 7250TIP3    H148673   3.057   7.422   6.796 -0.6883 -0.3945  0.7125
 7250TIP3    H248674   2.914   7.402   6.749 -0.0853 -1.5656 -0.7183
 7251TIP3   OH248675   1.586   1.617   1.710  0.1658  0.7702 -0.0700
 7251TIP3    H148676   1.646   1.628   1.636  0.5360  0.1485  0.1335
 7251TIP3    H248677   1.501   1.647   1.676  0.5812  1.6767 -0.3538
 7252TIP3   OH248678   4.144   6.673   0.108 -0.1100 -0.0876  1.0645
 7252TIP3    H148679   4.219   6.632   0.152 -0.3932 -1.9363 -0.0730
 7252TIP3    H248680   4.069   6.620   0.135 -0.4069 -0.7395 -0.8623
 7253TIP3   OH248681   8.273   4.988   5.492 -0.2658  0.1644  0.1908
 7253TIP3    H148682   8.308   4.907   5.529  0.4146 -0.3666 -1.4854
 7253TIP3    H248683   8.207   4.959   5.429 -0.6989  0.9732  0.2575
 7254TIP3   OH248684   1.471   8.077   6.456 -0.3863  0.2230  0.0177
 7254TIP3    H148685   1.563   8.083   6.429 -0.0848 -1.6795  0.4607
 7254TIP3    H248686   1.474   8.031   6.541 -1.6555  1.5429  0.8244
 7255TIP3   OH248687   6.998   7.916   6.128  0.3470  0.5878  0.0383
 7255TIP3    H148688   6.933   7.925   6.058 -1.1201  2.2643  1.5300
 7255TIP3    H248689   6.992   7.824   6.154 -0.8185  0.5050 -0.4455
 7256TIP3   OH248690   1.629   2.057   0.428  0.1044  0.1344  0.6517
 7256TIP3    H148691   1.543   2.056   0.470 -0.4381 -0.0143 -0.4398
 7256TIP3    H248692   1.611   2.054   0.335  1.3023 -0.1069  0.4047
 7257TIP3   OH248693   4.031   2.194   1.601 -0.3697  0.1604 -0.5761
 7257TIP3    H148694   4.080   2.114   1.619 -1.1798 -0.3626 -0.6558
 7257TIP3    H248695   4.021   2.236   1.686  1.4646  1.0308 -0.7394
 7258TIP3   OH248696   2.592   6.389   0.125 -0.6307  0.1330  0.4660
 7258TIP3    H148697   2.643   6.374   0.045 -1.7366  0.0915 -0.2605
 7258TIP3    H248698   2.539   6.310   0.135 -1.2553  0.5628  0.6490
 7259TIP3   OH248699   4.071   2.450   6.446  0.1162  0.6958 -0.3811
 7259TIP3    H148700   4.033   2.495   6.370 -0.3390  0.5483 -0.2430
 7259TIP3    H248701   4.166   2.453   6.430 -0.0232 -1.3266 -2.1284
 7260TIP3   OH248702   8.018   5.363   5.532  0.2125 -0.0284  0.3615
 7260TIP3    H148703   8.026   5.271   5.508  0.0359 -0.4987  1.9956
 7260TIP3    H248704   8.105   5.400   5.516  1.4879 -1.4423  3.3817
 7261TIP3   OH248705   8.396   5.771   5.289 -0.0674 -0.8706 -0.0352
 7261TIP3    H148706   8.483   5.800   5.263  1.7610 -4.0743  1.7914
 7261TIP3    H248707   8.358   5.734   5.209  0.3227  0.3261 -0.7939
 7262TIP3   OH248708   2.488   5.901   0.796 -0.1325 -0.0358  0.3696
 7262TIP3    H148709   2.487   5.996   0.805 -1.2746 -0.1455  1.6378
 7262TIP3    H248710   2.578   5.876   0.817 -0.1996  0.6505  1.5673
 7263TIP3   OH248711   3.341   2.638   5.906 -0.0074 -0.0662 -0.1303
 7263TIP3    H148712   3.385   2.554   5.912 -0.2483 -0.2244 -0.5770
 7263TIP3    H248713   3.295   2.636   5.822 -2.1535 -0.5202  0.9832
 7264TIP3   OH248714   0.325   2.658   6.853  0.7730 -0.5181 -0.1651
 7264TIP3    H148715   0.339   2.564   6.858  1.1546 -0.4365  0.3753
 7264TIP3    H248716   0.411   2.693   6.827  1.1814 -0.1542  1.5388
 7265TIP3   OH248717   1.859   2.761   7.013  0.6810  0.5540 -0.3383
 7265TIP3    H148718   1.918   2.743   0.015  1.0983  2.1085 -0.2521
 7265TIP3    H248719   1.901   2.833   6.965 -0.9253  1.4396 -0.4918
 7266TIP3   OH248720   7.346   3.362   0.011  0.2360 -0.2194 -0.3780
 7266TIP3    H148721   7.309   3.431   0.067  0.9474  0.1475 -0.3388
 7266TIP3    H248722   7.366   3.291   0.072  1.4448  0.3591 -0.0567
 7267TIP3   OH248723   0.440   5.122   0.428 -0.0685 -0.0202  0.4248
 7267TIP3    H148724   0.427   5.053   0.493  2.2260 -0.0937  0.9059
 7267TIP3    H248725   0.429   5.079   0.344  0.9088 -0.9008  0.7257
 7268TIP3   OH248726   5.192   3.623   1.405  0.6726  0.1052 -0.1118
 7268TIP3    H148727   5.226   3.608   1.493  0.7918  2.2651  0.2642
 7268TIP3    H248728   5.270   3.626   1.349  0.7606  0.6559  0.0345
 7269TIP3   OH248729   8.061   5.630   1.377 -0.2491  0.3487  0.0298
 7269TIP3    H148730   7.994   5.654   1.313  0.4935  0.1431 -0.8475
 7269TIP3    H248731   8.032   5.545   1.411 -0.1613 -0.0022 -0.7450
 7270TIP3   OH248732   6.795   5.885   0.553 -0.0491 -0.2430 -0.9494
 7270TIP3    H148733   6.847   5.831   0.612 -1.2379  2.1005  2.5362
 7270TIP3    H248734   6.858   5.945   0.514  0.3393  0.8939  1.2616
 7271TIP3   OH248735   3.742   2.645   0.202  0.8703 -0.4671  0.8859
 7271TIP3    H148736   3.743   2.728   0.154  1.8228  0.4521  2.3977
 7271TIP3    H248737   3.659   2.605   0.179  0.7386  0.5187 -0.5115
 7272TIP3   OH248738   5.254   6.871   1.819  0.7511 -0.0458  0.6276
 7272TIP3    H148739   5.307   6.943   1.854  0.4584  0.0621  0.8488
 7272TIP3    H248740   5.232   6.899   1.730 -1.4887  1.3178  1.5423
 7273TIP3   OH248741   2.690   2.174   5.606 -0.6278 -0.1114  0.5604
 7273TIP3    H148742   2.638   2.094   5.607 -1.3408  0.3319  0.2664
 7273TIP3    H248743   2.712   2.188   5.514  1.7601 -1.3634  0.8592
 7274TIP3   OH248744   7.481   7.694   5.722 -0.1683 -1.0373  0.1574
 7274TIP3    H148745   7.389   7.685   5.748  0.0501 -1.8979  0.6864
 7274TIP3    H248746   7.502   7.786   5.736 -1.0245 -0.7731 -0.2258
 7275TIP3   OH248747   4.546   4.333   0.000  0.3789 -0.9445  0.0806
 7275TIP3    H148748   4.522   4.274   0.071  0.2231 -2.4293 -1.1721
 7275TIP3    H248749   4.527   4.285   6.991 -1.1332  1.3397 -1.0414
 7276TIP3   OH248750   1.485   6.979   6.644 -0.1176 -0.2758  0.3139
 7276TIP3    H148751   1.402   6.942   6.615  0.5605 -1.5165 -0.1468
 7276TIP3    H248752   1.488   7.067   6.607 -0.4453 -0.8648 -1.1611
 7277TIP3   OH248753   7.930   3.052   5.809  0.6197  0.6335 -0.2305
 7277TIP3    H148754   7.996   3.107   5.767 -0.5380  0.8074 -1.9320
 7277TIP3    H248755   7.847   3.095   5.789 -0.0829 -0.0034  1.1909
 7278TIP3   OH248756   3.311   4.336   6.624 -0.1208 -0.0093  0.4646
 7278TIP3    H148757   3.349   4.354   6.710 -0.1561 -0.0712  0.4925
 7278TIP3    H248758   3.376   4.281   6.580  0.0210  0.2460  0.3509
 7279TIP3   OH248759   5.647   1.370   0.735  0.2274 -0.2124 -0.2684
 7279TIP3    H148760   5.638   1.274   0.732 -0.5643 -0.1534 -0.0562
 7279TIP3    H248761   5.557   1.402   0.732  0.4366  0.4960  0.5847
 7280TIP3   OH248762   2.810   5.645   6.688  0.2497 -0.3021  0.2582
 7280TIP3    H148763   2.783   5.566   6.641 -0.5337  1.0354 -1.6246
 7280TIP3    H248764   2.732   5.671   6.737  0.0150  0.1596 -0.3542
 7281TIP3   OH248765   8.221   0.134   1.128 -0.2411 -0.3312 -0.1753
 7281TIP3    H148766   8.293   0.137   1.065  0.9783 -0.3510  1.1540
 7281TIP3    H248767   8.212   0.224   1.159 -1.0697 -0.2556 -0.6023
 7282TIP3   OH248768   4.700   5.718   1.201 -0.3598 -0.3807 -0.4299
 7282TIP3    H148769   4.691   5.767   1.283 -0.9880  0.3229 -0.9113
 7282TIP3    H248770   4.795   5.709   1.189 -0.1741 -3.2664  1.9850
 7283TIP3   OH248771   5.697   7.819   1.153 -0.0057  0.0850  0.3095
 7283TIP3    H148772   5.743   7.828   1.237  0.7574 -2.3166  0.2063
 7283TIP3    H248773   5.763   7.838   1.087 -0.1102  0.1484  0.2232
 7284TIP3   OH248774   1.910   6.598   0.472  0.6629  0.4632 -0.1093
 7284TIP3    H148775   1.958   6.561   0.546  0.6248  0.3258 -0.1525
 7284TIP3    H248776   1.824   6.621   0.508  0.4596 -0.0850 -0.2271
 7285TIP3   OH248777   6.643   6.753   1.136  0.1803  0.4949 -0.7447
 7285TIP3    H148778   6.611   6.823   1.192 -1.0048 -1.0958  0.6875
 7285TIP3    H248779   6.669   6.796   1.055 -1.4650  2.4477 -0.3019
 7286TIP3   OH248780   7.984   4.848   6.656 -0.0281  0.0891  0.8268
 7286TIP3    H148781   7.997   4.897   6.574  2.7307 -0.0101  1.0880
 7286TIP3    H248782   7.895   4.870   6.684 -0.4076  1.5318 -1.2764
 7287TIP3   OH248783   6.771   5.063   1.544  0.0594 -0.4138  0.3237
 7287TIP3    H148784   6.716   5.006   1.597 -0.5273 -1.8362 -1.6987
 7287TIP3    H248785   6.819   5.116   1.608 -1.5522 -1.1007  2.2078
 7288TIP3   OH248786   4.755   1.828   1.146 -0.6287 -0.0028 -0.4258
 7288TIP3    H148787   4.720   1.876   1.071 -0.7655 -0.0923 -0.4194
 7288TIP3    H248788   4.748   1.889   1.219  0.9572  0.6617 -0.7883
 7289TIP3   OH248789   7.326   7.833   5.028 -0.0481  0.1100  0.3641
 7289TIP3    H148790   7.396   7.827   4.963  0.4559 -0.0291  0.9130
 7289TIP3    H248791   7.351   7.907   5.083  0.7403 -1.1781  1.7996
 7290TIP3   OH248792   5.560   4.662   5.368  0.4036 -0.0932  0.2298
 7290TIP3    H148793   5.644   4.703   5.348 -0.1706  2.0963  1.9790
 7290TIP3    H248794   5.501   4.694   5.300  0.6441 -0.4989 -0.1760
 7291TIP3   OH248795   2.736   3.317   5.367  0.2906  0.4479 -0.3387
 7291TIP3    H148796   2.733   3.321   5.462  2.9198  0.3675 -0.1749
 7291TIP3    H248797   2.650   3.348   5.338 -0.5735  0.4125  2.0321
 7292TIP3   OH248798   0.578   1.406   1.713 -0.0173 -0.1483  0.0403
 7292TIP3    H148799   0.639   1.478   1.700 -0.8451  0.5197 -0.2807
 7292TIP3    H248800   0.627   1.328   1.689  0.4380  0.4620 -1.1130
 7293TIP3   OH248801   2.669   3.917   5.605 -0.6856 -0.5064 -0.4480
 7293TIP3    H148802   2.719   3.923   5.686  4.2998  0.1202 -3.1253
 7293TIP3    H248803   2.656   3.823   5.592 -0.9743 -0.6433  0.7341
 7294TIP3   OH248804   1.823   2.310   0.255  0.1661  0.2741 -0.0424
 7294TIP3    H148805   1.891   2.251   0.222  0.3918  0.9928 -0.9113
 7294TIP3    H248806   1.857   2.341   0.339  0.1577 -0.6324  0.3064
 7295TIP3   OH248807   6.362   5.206   6.629  0.4586  0.8587  0.0030
 7295TIP3    H148808   6.397   5.201   6.540  1.7750 -0.2035  0.5396
 7295TIP3    H248809   6.421   5.266   6.675  0.2729  0.7744  0.3570
 7296TIP3   OH248810   4.209   6.825   0.728 -0.4420  0.4403 -0.1319
 7296TIP3    H148811   4.242   6.764   0.793  1.1312  1.4670  0.1021
 7296TIP3    H248812   4.261   6.905   0.742 -0.1081  0.7224 -2.5597
 7297TIP3   OH248813   7.697   4.888   6.697 -0.0182  0.2963 -0.0618
 7297TIP3    H148814   7.657   4.975   6.704 -0.5654  0.0843 -0.4967
 7297TIP3    H248815   7.651   4.846   6.624 -0.6053 -0.8043  0.8968
 7298TIP3   OH248816   7.682   6.078   0.701  0.1405 -0.3955 -0.6477
 7298TIP3    H148817   7.633   6.131   0.638 -0.0528  0.5613  0.2662
 7298TIP3    H248818   7.717   6.142   0.764 -1.1663 -1.4292  1.2315
 7299TIP3   OH248819   1.112   7.543   6.537  0.3747  0.7803 -0.0305
 7299TIP3    H148820   1.119   7.560   6.631 -1.0841 -0.1996  0.2965
 7299TIP3    H248821   1.060   7.463   6.531  1.3791  0.1866 -1.6588
 7300TIP3   OH248822   0.991   6.354   1.713  0.4129 -0.3277  0.0710
 7300TIP3    H148823   0.981   6.445   1.740 -0.5397 -0.6145  0.7018
 7300TIP3    H248824   0.956   6.352   1.624 -0.7121 -0.3178  0.4985
 7301TIP3   OH248825   7.796   5.118   2.257  0.2145  0.5685  0.1740
 7301TIP3    H148826   7.712   5.153   2.228  0.9264  0.3991 -2.3129
 7301TIP3    H248827   7.780   5.024   2.267  0.3425  0.3594 -1.3866
 7302TIP3   OH248828   1.987   7.663   5.893  0.0604 -0.1767 -0.0537
 7302TIP3    H148829   2.009   7.632   5.805 -1.0063  1.9995 -1.1615
 7302TIP3    H248830   1.900   7.627   5.910 -0.0550  0.0305 -0.2069
 7303TIP3   OH248831   2.948   7.840   0.178  0.1926 -0.4388  0.3298
 7303TIP3    H148832   2.912   7.783   0.245 -0.5057  1.3541  1.5613
 7303TIP3    H248833   2.873   7.891   0.147  0.4980 -1.2123 -1.8535
 7304TIP3   OH248834   2.940   1.691   6.340  0.4688  0.1517 -0.7297
 7304TIP3    H148835   3.005   1.646   6.394 -0.8648 -1.4459 -0.3794
 7304TIP3    H248836   2.894   1.620   6.294  0.3332  1.3613 -2.5611
 7305TIP3   OH248837   2.563   6.692   6.332  0.0892  0.5655  0.3480
 7305TIP3    H148838   2.494   6.742   6.376 -1.2463 -1.4408  0.6504
 7305TIP3    H248839   2.516   6.632   6.274  1.7068  0.9835 -1.5108
 7306TIP3   OH248840   5.132   2.823   6.048  0.0496  0.5337  0.7065
 7306TIP3    H148841   5.227   2.833   6.039 -0.0799 -0.0411 -2.2936
 7306TIP3    H248842   5.095   2.892   5.992 -1.2610 -0.1721  0.6661
 7307TIP3   OH248843   5.152   0.536   0.049 -0.2150  0.2656 -0.3172
 7307TIP3    H148844   5.119   0.447   0.054  1.8843 -0.5824 -0.5758
 7307TIP3    H248845   5.082   0.586   0.006 -1.5513 -1.1527  0.1238
 7308TIP3   OH248846   4.236   3.873   0.393  0.1798 -0.3827  0.2601
 7308TIP3    H148847   4.244   3.907   0.482  1.2016  0.0462  0.0090
 7308TIP3    H248848   4.317   3.824   0.377  0.5362  0.5165 -0.8381
 7309TIP3   OH248849   2.334   4.496   0.316  0.3026 -0.1502  0.5329
 7309TIP3    H148850   2.358   4.477   0.225  0.6488 -0.0269  0.5970
 7309TIP3    H248851   2.325   4.591   0.319 -0.8985 -0.2487  0.3431
 7310TIP3   OH248852   1.650   7.407   6.276 -0.2012  0.6233 -0.0207
 7310TIP3    H148853   1.720   7.365   6.327  0.0470  0.1125 -0.7645
 7310TIP3    H248854   1.604   7.461   6.340 -0.8328 -1.1437  1.1021
 7311TIP3   OH248855   8.356   4.099   5.841 -0.4911 -0.5264  0.4833
 7311TIP3    H148856   8.365   4.028   5.777  0.6104  1.1095 -1.2788
 7311TIP3    H248857   8.443   4.106   5.880  0.1623  1.3728 -1.1312
 7312TIP3   OH248858   8.370   7.916   0.010  0.4850 -0.0072  0.3630
 7312TIP3    H148859   8.342   7.992   0.062  3.8184  1.6102  0.1019
 7312TIP3    H248860   8.396   7.953   6.997  0.1549 -1.8169 -0.5876
 7313TIP3   OH248861   3.016   2.864   0.552 -0.3966 -0.6811  0.4016
 7313TIP3    H148862   2.933   2.833   0.589 -0.6390 -1.7687 -0.9696
 7313TIP3    H248863   3.009   2.959   0.555 -2.3069 -0.7246 -0.9165
 7314TIP3   OH248864   2.656   3.802   0.781 -0.1561  0.1971  0.1196
 7314TIP3    H148865   2.662   3.889   0.741  0.2394  1.3248  2.4520
 7314TIP3    H248866   2.562   3.781   0.779 -0.0274 -0.4379 -2.5435
 7315TIP3   OH248867   7.831   5.485   5.738  0.7720  0.0472  0.7113
 7315TIP3    H148868   7.755   5.471   5.681  0.1326 -1.3441  1.8593
 7315TIP3    H248869   7.903   5.441   5.693  0.4112 -0.5147  0.6792
 7316TIP3   OH248870   5.471   7.941   5.793  0.4281  0.2415 -0.1997
 7316TIP3    H148871   5.546   7.999   5.806  1.3127 -1.0034  0.5038
 7316TIP3    H248872   5.430   7.935   5.879  1.5188 -1.6619  0.2673
 7317TIP3   OH248873   6.490   3.789   1.556 -0.2692 -0.8775 -0.5876
 7317TIP3    H148874   6.476   3.697   1.575 -1.0265 -0.7390 -0.4267
 7317TIP3    H248875   6.446   3.836   1.627  1.0652 -0.3933 -0.0569
 7318TIP3   OH248876   3.027   5.045   6.820 -0.6460 -0.1245  0.5609
 7318TIP3    H148877   3.041   5.046   6.725  3.8975 -0.7878  0.9687
 7318TIP3    H248878   3.015   5.136   6.844 -4.0537 -0.1108 -0.7209
 7319TIP3   OH248879   4.236   3.918   5.090  0.0578  0.0037  0.2829
 7319TIP3    H148880   4.158   3.963   5.124 -0.3328  0.7731 -1.5428
 7319TIP3    H248881   4.306   3.982   5.098  0.3303 -0.3832  1.1059
 7320TIP3   OH248882   6.911   7.948   5.320 -0.2175  0.0047  0.8589
 7320TIP3    H148883   6.858   8.022   5.291  0.3228 -0.2477 -0.8454
 7320TIP3    H248884   6.855   7.872   5.307 -1.1184  0.1172  3.4669
 7321TIP3   OH248885   2.250   2.337   1.062  0.5799 -0.1298  0.1847
 7321TIP3    H148886   2.344   2.349   1.075  0.7399  0.0678 -1.0930
 7321TIP3    H248887   2.241   2.305   0.973 -0.6339  0.8032 -0.0615
 7322TIP3   OH248888   6.591   7.673   0.058  0.0394 -0.1819  0.3064
 7322TIP3    H148889   6.657   7.615   0.095  1.3821 -1.0950 -3.1195
 7322TIP3    H248890   6.518   7.616   0.036  0.7343 -0.3955 -1.6337
 7323TIP3   OH248891   2.525   2.800   0.582 -0.2264 -0.2168  0.0003
 7323TIP3    H148892   2.548   2.735   0.516 -2.3417  0.0015 -1.0146
 7323TIP3    H248893   2.576   2.878   0.559 -0.1944 -0.4625 -0.7825
 7324TIP3   OH248894   1.351   4.752   6.237  0.3579 -0.0711 -0.4435
 7324TIP3    H148895   1.331   4.770   6.329 -4.0094 -2.1900 -0.7481
 7324TIP3    H248896   1.337   4.835   6.193 -2.5979 -0.0742  0.2829
 7325TIP3   OH248897   1.179   5.254   0.910 -0.1166  0.1399  0.3954
 7325TIP3    H148898   1.179   5.350   0.913 -2.9691  0.2123  0.5873
 7325TIP3    H248899   1.097   5.231   0.866  1.1009 -2.2388 -0.8645
 7326TIP3   OH248900   8.486   6.903   5.743 -0.5416  0.4936 -0.0083
 7326TIP3    H148901   8.424   6.831   5.759  0.2834 -0.7158 -1.9663
 7326TIP3    H248902   8.457   6.942   5.661  0.7147  0.5295 -0.4543
 7327TIP3   OH248903   5.715   1.764   1.301 -0.0510 -0.4735 -0.2617
 7327TIP3    H148904   5.689   1.817   1.225  2.2433 -0.1317 -0.8985
 7327TIP3    H248905   5.731   1.828   1.370  1.4870 -0.3735 -0.6584
 7328TIP3   OH248906   6.678   7.444   5.777 -0.0917  0.1592  0.0832
 7328TIP3    H148907   6.686   7.415   5.868 -1.0617  0.2499  0.2142
 7328TIP3    H248908   6.598   7.401   5.745  0.5539 -0.3412 -0.9157
 7329TIP3   OH248909   3.258   2.422   6.995  0.3916  0.5911 -0.1355
 7329TIP3    H148910   3.186   2.477   7.026  1.1948  0.8347  1.3837
 7329TIP3    H248911   3.216   2.339   6.971 -0.4393  0.8352  0.4300
 7330TIP3   OH248912   0.843   7.382   5.610  0.3999 -0.3191  0.7892
 7330TIP3    H148913   0.874   7.472   5.625 -2.0285  0.8352 -0.4553
 7330TIP3    H248914   0.846   7.371   5.515 -1.7349 -0.5222  0.6942
 7331TIP3   OH248915   5.103   7.316   6.066 -0.1811 -0.1767 -0.1023
 7331TIP3    H148916   5.043   7.365   6.010 -0.3590 -1.2215 -0.8580
 7331TIP3    H248917   5.049   7.284   6.139 -0.4093 -0.5633 -0.4381
 7332TIP3   OH248918   0.162   0.645   6.467  0.0825  0.0023  0.0294
 7332TIP3    H148919   0.215   0.620   6.391 -1.5657  0.9103 -1.5008
 7332TIP3    H248920   0.106   0.569   6.483  0.0540  0.0128 -0.0194
 7333TIP3   OH248921   0.977   6.684   6.425  0.1695  0.0866 -0.7513
 7333TIP3    H148922   0.926   6.708   6.347 -2.4520 -0.4068  0.7100
 7333TIP3    H248923   0.914   6.682   6.496  2.3597 -0.1188  1.3277
 7334TIP3   OH248924   7.070   7.219   1.033 -0.0814 -0.1499 -0.1699
 7334TIP3    H148925   7.124   7.144   1.058  0.5178  0.8785  1.9210
 7334TIP3    H248926   7.133   7.284   1.001  0.0234  1.0293  2.2134
 7335TIP3   OH248927   1.922   4.832   5.619 -0.7834 -0.1547  0.5282
 7335TIP3    H148928   2.013   4.840   5.648 -1.0407  2.0892  0.8865
 7335TIP3    H248929   1.880   4.779   5.687 -0.2992  0.9806  1.7447
 7336TIP3   OH248930   3.301   7.448   6.580  0.1295 -0.3463  0.3885
 7336TIP3    H148931   3.362   7.495   6.636 -0.0765 -2.5272  2.6061
 7336TIP3    H248932   3.349   7.435   6.498  0.9997  1.6504  0.5308
 7337TIP3   OH248933   5.944   1.878   0.301  0.1912  0.0582  0.4550
 7337TIP3    H148934   5.934   1.864   0.207 -0.1994 -0.5141  0.5758
 7337TIP3    H248935   5.855   1.897   0.332  0.3289  0.3154  0.7009
 7338TIP3   OH248936   6.396   1.879   5.869  0.2081  0.3170 -0.5277
 7338TIP3    H148937   6.355   1.953   5.914 -1.3632 -0.3232 -0.8670
 7338TIP3    H248938   6.351   1.874   5.785  0.2357 -1.0893 -0.4758
 7339TIP3   OH248939   7.355   2.666   5.397 -0.3527  0.5091  0.0645
 7339TIP3    H148940   7.445   2.670   5.365 -0.8058  2.1322 -1.1468
 7339TIP3    H248941   7.333   2.757   5.416 -1.6510  0.0980  0.6149
 7340TIP3   OH248942   1.701   5.007   6.329 -0.6502 -0.5500  0.5194
 7340TIP3    H148943   1.647   5.030   6.253 -0.6743 -2.1770  0.0236
 7340TIP3    H248944   1.686   5.079   6.391  1.2873  2.1375 -1.9169
 7341TIP3   OH248945   3.588   6.824   0.598 -0.7679 -0.3644  0.5769
 7341TIP3    H148946   3.624   6.803   0.684 -0.1211 -1.3589  0.0846
 7341TIP3    H248947   3.586   6.920   0.595  0.5608 -0.3040  1.1523
 7342TIP3   OH248948   4.567   8.196   4.875  0.0129  0.0593 -0.1627
 7342TIP3    H148949   4.650   8.226   4.839 -0.7889  1.4706 -0.9223
 7342TIP3    H248950   4.533   8.272   4.924 -0.4957 -0.7262  0.7348
 7343TIP3   OH248951   3.097   0.169   6.360  0.3965 -0.0611 -0.1390
 7343TIP3    H148952   3.053   0.254   6.352  0.3284 -0.1921 -1.3142
 7343TIP3    H248953   3.051   0.125   6.431 -3.5312 -1.4207 -3.2126
 7344TIP3   OH248954   1.857   2.246   5.167  0.2313  0.2016 -0.0075
 7344TIP3    H148955   1.927   2.284   5.114 -0.4000 -0.2238 -1.1780
 7344TIP3    H248956   1.815   2.321   5.209  0.0757  0.6539 -0.9498
 7345TIP3   OH248957   6.184   4.359   0.692 -0.3844 -0.3168  0.1394
 7345TIP3    H148958   6.112   4.410   0.657 -1.2450 -1.5750  0.0081
 7345TIP3    H248959   6.262   4.409   0.670 -1.1683  0.7186 -0.3381
 7346TIP3   OH248960   5.581   3.492   1.396  0.1496 -0.1563 -0.4464
 7346TIP3    H148961   5.621   3.472   1.481 -0.4113 -1.0236 -0.3792
 7346TIP3    H248962   5.582   3.409   1.349 -0.7378  0.0157 -0.7843
 7347TIP3   OH248963   7.221   7.194   6.041  0.0598 -0.0223 -0.3090
 7347TIP3    H148964   7.135   7.177   6.002  0.4913 -0.1999 -1.2159
 7347TIP3    H248965   7.262   7.258   5.982  0.5363  0.0936  0.1373
 7348TIP3   OH248966   0.390   5.544   1.402  0.1123 -0.0786  0.5620
 7348TIP3    H148967   0.468   5.500   1.435  0.5014  2.1304  2.8244
 7348TIP3    H248968   0.423   5.626   1.365 -0.9726 -0.0140 -0.3119
 7349TIP3   OH248969   1.035   6.096   0.666 -0.6798 -0.2081  0.2585
 7349TIP3    H148970   0.940   6.084   0.662 -0.9536  1.0066  2.1317
 7349TIP3    H248971   1.061   6.053   0.747  0.5024 -1.1576 -0.5994
 7350TIP3   OH248972   7.417   5.036   6.207 -0.2475  0.3870  0.0270
 7350TIP3    H148973   7.458   5.080   6.133  0.8519  0.9153  0.9163
 7350TIP3    H248974   7.354   4.976   6.168  0.2003  0.7726 -1.3195
 7351TIP3   OH248975   5.191   4.472   6.936 -0.3204 -0.0399  0.1188
 7351TIP3    H148976   5.116   4.438   6.888  0.8384 -0.8797 -1.1827
 7351TIP3    H248977   5.207   4.407   7.004 -0.0496 -0.4971 -0.3712
 7352TIP3   OH248978   6.011   5.904   1.293  0.2929 -0.0241  0.2186
 7352TIP3    H148979   6.096   5.929   1.257 -0.5480  2.6969 -0.1703
 7352TIP3    H248980   5.964   5.863   1.220  0.0464  1.7612 -0.6765
 7353TIP3   OH248981   8.492   0.829   0.504 -0.2173 -0.3167  0.2490
 7353TIP3    H148982   0.052   0.829   0.504 -0.1834 -1.8968 -0.3016
 7353TIP3    H248983   8.468   0.746   0.546 -1.3793  0.7562  1.7775
 7354TIP3   OH248984   0.938   7.237   6.918  0.3746  0.0540 -0.2485
 7354TIP3    H148985   0.854   7.192   6.912  0.0601  0.5176  0.5050
 7354TIP3    H248986   0.919   7.326   6.889  0.5371  0.2356  0.1965
 7355TIP3   OH248987   0.206   1.860   0.655  0.5893  0.6838 -0.7881
 7355TIP3    H148988   0.205   1.782   0.601 -2.2893  1.3052 -1.8318
 7355TIP3    H248989   0.196   1.828   0.745 -0.4445 -0.1732 -1.1934
 7356TIP3   OH248990   5.949   4.481   0.079  0.0127 -0.2559 -0.0747
 7356TIP3    H148991   6.019   4.424   0.111  0.7168  0.7669  0.2660
 7356TIP3    H248992   5.992   4.539   0.017 -0.8520 -0.5930 -1.0180
 7357TIP3   OH248993   0.119   3.770   5.506 -0.3649  0.2172 -0.7315
 7357TIP3    H148994   0.044   3.776   5.447 -0.0724  2.2165 -0.9907
 7357TIP3    H248995   0.194   3.792   5.450 -0.2802  4.1928  0.6571
 7358TIP3   OH248996   0.266   0.007   0.639  0.2499 -0.0823 -0.5139
 7358TIP3    H148997   0.309   0.087   0.672 -0.6524 -0.1568  0.9155
 7358TIP3    H248998   0.264   8.483   0.714 -1.0321 -0.6281 -0.9522
 7359TIP3   OH248999   8.324   6.185   7.046 -0.1780  0.0192  0.1202
 7359TIP3    H149000   8.362   6.161   6.962  1.5010 -1.7233  1.2839
 7359TIP3    H249001   8.382   6.252   0.010  0.8257 -1.2988  1.0792
 7360TIP3   OH249002   1.699   7.513   6.935  0.1987 -0.3230  0.0175
 7360TIP3    H149003   1.708   7.473   7.021 -0.3961 -0.1161  0.1811
 7360TIP3    H249004   1.787   7.509   6.897  0.1681 -1.7491  0.0445
 7361TIP3   OH249005   6.868   8.503   7.024 -0.2317 -0.0833  0.0299
 7361TIP3    H149006   6.947   0.013   7.054  0.5400 -2.1663  1.3571
 7361TIP3    H249007   6.807   8.511   0.026  0.7500 -2.9932  1.3538
 7362TIP3   OH249008   2.966   5.895   5.240 -0.2445  0.7384 -0.2028
 7362TIP3    H149009   3.036   5.920   5.299 -0.7345 -1.5788  1.5328
 7362TIP3    H249010   3.006   5.831   5.180 -1.0277 -1.6858  1.6877
 7363TIP3   OH249011   3.065   2.805   1.380 -0.0796  0.7610  0.1706
 7363TIP3    H149012   2.980   2.824   1.341  0.7814  0.1184 -2.1402
 7363TIP3    H249013   3.069   2.863   1.456 -2.2174  1.4100 -0.1346
 7364TIP3   OH249014   2.254   5.374   6.466  0.0114  0.2681 -0.1034
 7364TIP3    H149015   2.280   5.418   6.385 -0.8049  0.0685 -0.4846
 7364TIP3    H249016   2.229   5.286   6.438 -0.2900  0.2037  0.3600
 7365TIP3   OH249017   4.336   2.473   6.374 -0.6380 -0.2974 -0.2200
 7365TIP3    H149018   4.413   2.490   6.319 -1.5079  1.2307 -1.0224
 7365TIP3    H249019   4.344   2.381   6.397  3.3611  0.5062  2.7598
 7366TIP3   OH249020   6.326   7.228   6.435 -0.4103 -0.0314 -0.1853
 7366TIP3    H149021   6.387   7.290   6.475 -1.4754  1.2137 -0.4114
 7366TIP3    H249022   6.247   7.280   6.418 -2.0822 -1.8676  1.3964
 7367TIP3   OH249023   6.574   0.075   1.143  0.4007 -0.3720  0.0245
 7367TIP3    H149024   6.526   0.151   1.111 -0.2685 -1.0942 -0.7681
 7367TIP3    H249025   6.632   0.109   1.211 -0.6356  0.6718  0.4174
 7368TIP3   OH249026   7.509   3.340   0.960 -0.4310  0.4157  0.4344
 7368TIP3    H149027   7.474   3.305   0.878 -0.7907 -1.6570  1.4009
 7368TIP3    H249028   7.459   3.420   0.976 -1.9212 -0.3262 -0.2796
 7369TIP3   OH249029   2.689   4.071   6.589 -0.0057  0.3177 -0.1174
 7369TIP3    H149030   2.688   4.137   6.519  0.3594 -0.2494 -0.6683
 7369TIP3    H249031   2.605   4.083   6.634 -1.0129 -0.3936 -1.7122
 7370TIP3   OH249032   6.425   3.248   0.100 -0.0264 -0.1779  0.3779
 7370TIP3    H149033   6.406   3.213   0.013  1.1297  1.1575 -0.4538
 7370TIP3    H249034   6.471   3.177   0.145 -0.1619 -0.6989 -0.2975
 7371TIP3   OH249035   0.353   1.461   0.626 -0.0129  0.6092 -0.4419
 7371TIP3    H149036   0.288   1.394   0.646 -0.3128  1.2225  0.7911
 7371TIP3    H249037   0.303   1.534   0.589  0.2608  0.3030 -1.4326
 7372TIP3   OH249038   0.933   8.087   5.361  0.4938  0.0699  0.7100
 7372TIP3    H149039   1.024   8.100   5.334 -0.3566  1.2579 -1.8232
 7372TIP3    H249040   0.903   8.013   5.309 -0.2664  0.2955  0.8251
 7373TIP3   OH249041   2.687   7.789   6.604  0.1923  0.0515  0.2541
 7373TIP3    H149042   2.596   7.796   6.633 -0.1213 -0.1411 -0.6369
 7373TIP3    H249043   2.737   7.778   6.684 -0.6590 -0.6850  0.7050
 7374TIP3   OH249044   7.322   6.959   0.645 -0.2449 -0.1739 -0.0006
 7374TIP3    H149045   7.401   7.011   0.631 -1.0462  0.9471 -0.6077
 7374TIP3    H249046   7.325   6.893   0.575  0.1614 -0.1535 -0.0071
 7375TIP3   OH249047   5.759   4.037   4.968 -0.4982 -0.0717  0.8605
 7375TIP3    H149048   5.699   4.075   4.904  0.0015 -0.8375 -0.0827
 7375TIP3    H249049   5.704   4.017   5.044 -0.8646  2.0665  1.2344
 7376TIP3   OH249050   6.814   1.427   6.828 -0.5953 -0.3800  0.0620
 7376TIP3    H149051   6.805   1.342   6.870 -0.6125 -0.6667 -0.5230
 7376TIP3    H249052   6.906   1.450   6.838 -0.5721 -0.5095  0.1415
 7377TIP3   OH249053   6.835   1.829   1.221 -0.0243  0.7654 -0.3888
 7377TIP3    H149054   6.884   1.879   1.286 -0.1864  0.6379 -0.1657
 7377TIP3    H249055   6.745   1.860   1.230 -0.3237 -0.2758  0.4663
 7378TIP3   OH249056   1.154   4.917   6.757  0.2566 -0.1700  0.2806
 7378TIP3    H149057   1.164   5.012   6.767  0.7735  0.2394 -3.1000
 7378TIP3    H249058   1.064   4.906   6.725  0.0344 -0.9144  1.1178
 7379TIP3   OH249059   3.480   7.607   5.647 -0.1719  0.1873  0.2411
 7379TIP3    H149060   3.423   7.684   5.639 -1.6591 -1.0160 -1.2947
 7379TIP3    H249061   3.437   7.553   5.713 -0.1799 -0.1952 -0.0772
 7380TIP3   OH249062   1.354   3.855   0.093  0.1999 -0.5004  0.4566
 7380TIP3    H149063   1.418   3.919   0.124  0.2566 -0.1457 -0.3812
 7380TIP3    H249064   1.319   3.892   0.012  0.4269 -1.6490 -0.1888
 7381TIP3   OH249065   5.123   2.809   5.729  0.2323  0.0990 -0.6696
 7381TIP3    H149066   5.065   2.863   5.783  0.6130 -0.1156 -0.0367
 7381TIP3    H249067   5.176   2.872   5.680 -1.9499  0.3437 -2.8780
 7382TIP3   OH249068   3.591   2.751   2.123 -0.3943  0.3681 -0.6604
 7382TIP3    H149069   3.631   2.682   2.175 -1.2833  1.4306  1.5562
 7382TIP3    H249070   3.567   2.708   2.040  0.3745 -1.5822  0.0758
 7383TIP3   OH249071   5.063   7.938   5.848  0.2446 -0.3048 -0.3238
 7383TIP3    H149072   5.100   8.017   5.888  0.6158 -0.4919 -0.2896
 7383TIP3    H249073   5.130   7.909   5.786 -0.1915 -0.1978 -0.8598
 7384TIP3   OH249074   0.266   8.298   6.314  0.0228 -0.6339  0.0034
 7384TIP3    H149075   0.329   8.254   6.371 -0.8476 -0.7365  0.9252
 7384TIP3    H249076   0.294   8.277   6.226 -0.1210 -2.7107  0.4101
 7385TIP3   OH249077   5.649   5.478   0.604 -0.1847  0.1894 -0.3994
 7385TIP3    H149078   5.596   5.476   0.684 -0.1231  0.3541 -0.3532
 7385TIP3    H249079   5.677   5.388   0.591  1.4053  0.4793  0.8316
 7386TIP3   OH249080   4.838   1.301   5.550 -0.6898 -0.2118 -0.0017
 7386TIP3    H149081   4.912   1.253   5.513  0.1349  0.7629  0.3406
 7386TIP3    H249082   4.783   1.322   5.475  0.0002  0.0899 -0.4314
 7387TIP3   OH249083   8.481   8.358   0.194 -0.1388  0.0514 -0.5294
 7387TIP3    H149084   8.533   8.282   0.168 -0.2022  0.1623 -0.9921
 7387TIP3    H249085   8.448   8.394   0.111 -1.7594 -0.5866 -0.1894
 7388TIP3   OH249086   7.186   5.405   0.016 -0.0144  0.3537 -0.0214
 7388TIP3    H149087   7.177   5.406   0.112  0.4844  1.0011  0.0244
 7388TIP3    H249088   7.099   5.381   7.056 -1.0156  2.9825  0.5192
 7389TIP3   OH249089   6.900   0.297   5.676  0.2623  0.4211  0.1694
 7389TIP3    H149090   6.886   0.305   5.770  0.5257  0.7061  0.1867
 7389TIP3    H249091   6.919   0.204   5.662  0.5061  0.4284  0.4402
 7390TIP3   OH249092   3.332   6.908   5.873 -0.2980  0.7324  0.0656
 7390TIP3    H149093   3.391   6.897   5.798  1.6996  2.0655  1.3286
 7390TIP3    H249094   3.279   6.829   5.873  1.1893 -0.3509 -1.4323
 7391TIP3   OH249095   6.617   5.690   0.656  0.7389 -0.6574  0.6607
 7391TIP3    H149096   6.533   5.720   0.688  1.3893 -0.4488  2.2480
 7391TIP3    H249097   6.658   5.769   0.620  0.5998 -0.5809  0.6683
 7392TIP3   OH249098   5.445   0.115   6.909  0.2536 -0.3309 -0.2162
 7392TIP3    H149099   5.368   0.170   6.893 -0.1830 -0.2521  1.8042
 7392TIP3    H249100   5.486   0.105   6.823 -0.4897  1.9112 -0.9159
 7393TIP3   OH249101   2.409   6.019   0.463 -0.8265  0.5394  0.6241
 7393TIP3    H149102   2.399   6.085   0.531 -0.6324  0.2626  0.9188
 7393TIP3    H249103   2.321   6.012   0.424 -1.1627  0.0111  1.4675
 7394TIP3   OH249104   6.685   4.850   6.063 -0.2388  0.0480  0.5361
 7394TIP3    H149105   6.641   4.927   6.027 -0.6057 -0.6624 -0.5648
 7394TIP3    H249106   6.645   4.838   6.149 -0.1512  1.1014  0.7431
 7395TIP3   OH249107   1.441   7.866   6.633 -0.1533  0.4629  0.6008
 7395TIP3    H149108   1.367   7.889   6.689  0.0304  0.2107  0.9520
 7395TIP3    H249109   1.500   7.817   6.691 -0.9274 -1.6720 -0.3128
 7396TIP3   OH249110   8.457   7.363   6.273  0.0231 -0.5994  0.0652
 7396TIP3    H149111   8.445   7.344   6.366  2.4531 -0.1896  0.5406
 7396TIP3    H249112   8.532   7.310   6.247 -1.7165 -2.1714 -2.2163
 7397TIP3   OH249113   6.244   2.536   1.457 -0.4310 -0.4420 -0.0873
 7397TIP3    H149114   6.279   2.579   1.535 -1.0722  1.5010 -0.8126
 7397TIP3    H249115   6.311   2.472   1.433  1.4471  1.3694  0.0417
 7398TIP3   OH249116   3.934   1.331   6.777 -0.2581 -0.4307 -0.0328
 7398TIP3    H149117   3.844   1.360   6.791  0.4744  1.0801  2.0172
 7398TIP3    H249118   3.965   1.307   6.864  1.8648  0.7941 -0.3835
 7399TIP3   OH249119   6.831   0.117   1.695  1.4355  0.2760 -0.0919
 7399TIP3    H149120   6.845   0.023   1.681  3.1619  0.4948 -0.0416
 7399TIP3    H249121   6.769   0.122   1.767  0.5148 -0.8127 -0.7685
 7400TIP3   OH249122   5.170   6.068   6.728  0.0229  0.3812  0.0185
 7400TIP3    H149123   5.182   6.115   6.811  0.4931  0.1772  0.0700
 7400TIP3    H249124   5.105   6.120   6.681 -0.0876  0.6211  0.4225
 7401TIP3   OH249125   1.389   3.148   5.245  0.2868 -0.6843  0.0447
 7401TIP3    H149126   1.341   3.113   5.320 -2.4582 -0.0681 -1.2945
 7401TIP3    H249127   1.430   3.228   5.279 -0.7861 -0.4873  0.9573
 7402TIP3   OH249128   3.157   7.351   0.862  0.0036 -0.0598  0.3212
 7402TIP3    H149129   3.117   7.363   0.948 -1.5847 -2.7761  0.0737
 7402TIP3    H249130   3.088   7.313   0.808  0.9389  1.6401 -2.2318
 7403TIP3   OH249131   1.467   6.048   0.438  0.4373  0.4570 -0.0408
 7403TIP3    H149132   1.552   6.076   0.474  0.5376 -0.1194  0.1719
 7403TIP3    H249133   1.430   6.128   0.400  1.3796  0.5827 -0.7309
 7404TIP3   OH249134   6.708   3.835   0.992 -0.0107 -0.1032 -0.1981
 7404TIP3    H149135   6.655   3.909   1.021  1.4449  1.9277 -2.3195
 7404TIP3    H249136   6.789   3.875   0.959  3.0386 -2.9777  2.9094
 7405TIP3   OH249137   7.464   0.417   1.202  0.2416  0.3524  0.5109
 7405TIP3    H149138   7.385   0.396   1.250  0.0750  0.6869  0.3911
 7405TIP3    H249139   7.536   0.383   1.255 -0.0664 -1.7410 -0.3402
 7406TIP3   OH249140   6.428   3.539   1.646  0.3145  0.1846  0.6067
 7406TIP3    H149141   6.353   3.505   1.693 -0.8111 -0.0910 -1.2904
 7406TIP3    H249142   6.503   3.517   1.701 -0.6731 -2.3962  1.0652
 7407TIP3   OH249143   5.040   2.604   1.200  0.7133  0.1856  0.1739
 7407TIP3    H149144   5.075   2.606   1.289  0.4535  0.4995  0.2711
 7407TIP3    H249145   4.968   2.667   1.201  0.7443  0.2330 -0.2745
 7408TIP3   OH249146   7.571   6.812   0.407 -0.0415 -0.9356  0.7125
 7408TIP3    H149147   7.665   6.826   0.419 -0.1254  1.8204 -1.0899
 7408TIP3    H249148   7.550   6.856   0.325 -2.7387 -2.4854  0.4561
 7409TIP3   OH249149   3.795   6.733   0.119 -0.5988 -0.3534  0.3232
 7409TIP3    H149150   3.743   6.806   0.085 -0.9585 -0.6468  0.2345
 7409TIP3    H249151   3.793   6.744   0.214  1.0839  0.9364  0.2543
 7410TIP3   OH249152   6.877   4.348   1.022  0.2131 -0.3814  0.3589
 7410TIP3    H149153   6.830   4.427   0.997 -3.7107 -3.0986 -2.1109
 7410TIP3    H249154   6.960   4.353   0.975  0.7657  2.7373  1.4248
 7411TIP3   OH249155   1.860   4.642   6.984 -0.3722  0.0878 -0.0146
 7411TIP3    H149156   1.812   4.560   6.971 -2.1015  0.6423  2.2269
 7411TIP3    H249157   1.814   4.705   6.929 -0.3952 -0.0077 -0.1044
 7412TIP3   OH249158   3.419   7.827   6.426 -0.0268 -0.4037 -0.2328
 7412TIP3    H149159   3.425   7.915   6.464  0.8146 -0.8201  0.6479
 7412TIP3    H249160   3.507   7.810   6.391  0.3031 -1.5032  1.0505
 7413TIP3   OH249161   7.759   5.080   5.594  0.1040 -0.7273  0.0976
 7413TIP3    H149162   7.817   5.107   5.523 -0.6705  2.9839  0.6659
 7413TIP3    H249163   7.671   5.100   5.562 -0.6886 -3.2274  0.4818
 7414TIP3   OH249164   8.342   8.140   6.317 -0.2194  0.4847 -0.1253
 7414TIP3    H149165   8.294   8.069   6.275 -1.2919  0.7989  0.5372
 7414TIP3    H249166   8.275   8.203   6.341 -0.0492 -0.6163  4.0195
 7415TIP3   OH249167   5.515   4.805   5.625 -0.1681 -0.0635  0.1580
 7415TIP3    H149168   5.532   4.745   5.552  0.2939 -0.0660  0.2625
 7415TIP3    H249169   5.420   4.803   5.636 -0.2239 -0.2054 -0.3213
 7416TIP3   OH249170   0.040   6.064   0.097 -0.0863  0.4331 -0.1045
 7416TIP3    H149171   8.481   6.056   0.113  0.1635  1.4146  2.0933
 7416TIP3    H249172   0.051   6.151   0.058  0.0357  0.8929  0.9311
 7417TIP3   OH249173   6.770   2.816   0.244  0.5640  0.2652 -0.2728
 7417TIP3    H149174   6.746   2.805   0.152 -1.8962 -0.7843  0.4120
 7417TIP3    H249175   6.822   2.738   0.264  1.8256  0.9022 -0.9339
 7418TIP3   OH249176   3.312   1.824   6.775  0.1532  0.3323  0.4173
 7418TIP3    H149177   3.364   1.895   6.739 -3.4606  1.7914 -2.5145
 7418TIP3    H249178   3.270   1.862   6.853  1.5963 -0.1102  1.4414
 7419TIP3   OH249179   7.188   6.898   5.211 -0.0168  0.9217  0.3687
 7419TIP3    H149180   7.256   6.915   5.145 -1.0155  0.1115 -0.9000
 7419TIP3    H249181   7.132   6.832   5.172 -1.6172  1.6383  1.3519
 7420TIP3   OH249182   5.769   8.354   1.143 -0.2951 -0.0977 -0.3174
 7420TIP3    H149183   5.835   8.362   1.075  2.9567  0.2349  2.6059
 7420TIP3    H249184   5.769   8.262   1.166  0.7262  0.2019  1.0247
 7421TIP3   OH249185   4.830   6.992   0.752 -0.2011 -0.9075  0.1440
 7421TIP3    H149186   4.833   7.016   0.659 -1.1029 -0.5280  0.2109
 7421TIP3    H249187   4.840   6.896   0.751  1.2307 -0.7874 -0.2437
 7422TIP3   OH249188   1.515   4.573   0.118 -0.3661  0.0848 -0.6706
 7422TIP3    H149189   1.512   4.571   0.022 -1.3087 -0.8308 -0.6322
 7422TIP3    H249190   1.581   4.640   0.138 -0.0615  0.1961 -1.9522
 7423TIP3   OH249191   6.573   7.726   4.894 -0.2450  0.3960 -0.2771
 7423TIP3    H149192   6.614   7.645   4.864  0.3508  1.3976 -2.3284
 7423TIP3    H249193   6.569   7.717   4.989  3.1866 -0.5088 -0.0962
 7424TIP3   OH249194   8.487   8.095   1.412  0.0854 -0.1770 -0.4718
 7424TIP3    H149195   8.514   8.157   1.480  1.0540  0.8494 -1.7345
 7424TIP3    H249196   8.420   8.142   1.362 -2.6522 -1.9022  1.3044
 7425TIP3   OH249197   0.445   1.152   0.643 -0.2528  0.2597  0.3142
 7425TIP3    H149198   0.354   1.179   0.648  0.1989  1.7423  1.0399
 7425TIP3    H249199   0.473   1.176   0.555 -0.8699 -1.3785 -0.3834
 7426TIP3   OH249200   0.809   2.678   1.035  0.2607 -0.3859 -0.2045
 7426TIP3    H149201   0.747   2.647   0.969 -0.4999 -0.5059  0.5502
 7426TIP3    H249202   0.860   2.745   0.989 -0.9116  0.2473 -0.6474
 7427TIP3   OH249203   1.948   5.333   5.492 -0.1199 -0.2954 -0.0229
 7427TIP3    H149204   1.979   5.322   5.402 -1.0040 -0.4519 -0.3189
 7427TIP3    H249205   1.934   5.244   5.524  1.7831 -0.3176  0.8628
 7428TIP3   OH249206   7.543   8.284   2.017  0.1817  0.0808  0.1533
 7428TIP3    H149207   7.573   8.267   1.928 -0.3527 -2.4946  0.3897
 7428TIP3    H249208   7.607   8.344   2.053  2.2987 -1.4088 -0.9175
 7429TIP3   OH249209   3.057   3.964   5.709  0.2299 -0.0845  0.0073
 7429TIP3    H149210   3.013   3.920   5.636  1.4786 -2.9173  0.8042
 7429TIP3    H249211   3.133   4.007   5.668 -0.0558 -0.1392 -0.5936
 7430TIP3   OH249212   2.021   6.456   0.687 -0.0483  0.1038 -0.2029
 7430TIP3    H149213   1.954   6.481   0.750  0.6552 -0.5144  0.8254
 7430TIP3    H249214   2.070   6.386   0.731  0.6230 -0.1598 -1.3352
 7431TIP3   OH249215   3.498   2.457   0.132 -0.3019 -0.1835 -0.2983
 7431TIP3    H149216   3.421   2.418   0.090 -1.2093  0.7210  0.4577
 7431TIP3    H249217   3.531   2.389   0.190 -2.1116  0.2216  1.3216
 7432TIP3   OH249218   8.360   0.870   2.111  0.6965 -0.6389  0.4621
 7432TIP3    H149219   8.281   0.819   2.093 -0.7691  1.7448 -0.4205
 7432TIP3    H249220   8.370   0.926   2.033 -0.7133  3.8418  3.1059
 7433TIP3   OH249221   3.876   5.349   0.199  0.0807 -0.6180  0.1957
 7433TIP3    H149222   3.792   5.322   0.238  0.8624 -2.8973  0.4689
 7433TIP3    H249223   3.923   5.267   0.184  1.4769  0.4607 -1.8360
 7434TIP3   OH249224   1.957   4.388   6.066  0.2362 -0.1145 -0.1528
 7434TIP3    H149225   1.998   4.421   5.986  1.2996  0.8390  0.7537
 7434TIP3    H249226   1.934   4.467   6.115 -1.8538 -0.6468 -0.1911
 7435TIP3   OH249227   4.397   0.012   0.818 -0.3954 -1.0302  0.0616
 7435TIP3    H149228   4.334   8.477   0.835  0.2973 -1.4516  0.9590
 7435TIP3    H249229   4.467   8.504   0.768 -1.0378 -0.4448 -1.4150
 7436TIP3   OH249230   3.979   8.136   5.790  0.6013  0.3428 -0.0149
 7436TIP3    H149231   3.891   8.134   5.827 -0.2630  1.2488 -1.8762
 7436TIP3    H249232   3.975   8.079   5.714  1.7817  0.0032  0.1489
 7437TIP3   OH249233   6.886   7.467   0.947 -0.0513 -0.4726  0.3933
 7437TIP3    H149234   6.813   7.478   1.007 -1.3226 -1.9821 -0.8076
 7437TIP3    H249235   6.874   7.380   0.910  0.9082  0.2560 -1.7692
 7438TIP3   OH249236   2.043   8.432   1.069  0.1936 -0.2966  0.1100
 7438TIP3    H149237   1.992   8.406   0.992  0.0008  0.0759  0.1104
 7438TIP3    H249238   2.109   8.363   1.078  1.6480  0.7322 -1.7259
 7439TIP3   OH249239   8.193   5.963   6.519 -0.5536  0.0617 -0.1271
 7439TIP3    H149240   8.194   5.915   6.602 -1.0427 -0.3719 -0.3654
 7439TIP3    H249241   8.206   5.896   6.452  1.3022  0.5841 -0.3477
 7440TIP3   OH249242   3.771   7.890   6.080 -0.4474 -0.2592 -0.0829
 7440TIP3    H149243   3.838   7.867   6.015  0.0948 -0.7758  0.6499
 7440TIP3    H249244   3.740   7.976   6.053  1.0015  0.2893 -0.0216
 7441TIP3   OH249245   4.462   7.146   1.657 -0.0129 -0.0991  0.1685
 7441TIP3    H149246   4.472   7.153   1.752  1.5659  0.7673 -0.0157
 7441TIP3    H249247   4.399   7.215   1.634 -2.2444 -1.8231  0.7796
 7442TIP3   OH249248   0.262   7.284   5.559 -0.5063  0.0654 -0.6793
 7442TIP3    H149249   0.237   7.337   5.483  2.3685 -0.1198 -1.8488
 7442TIP3    H249250   0.343   7.242   5.534 -1.0881 -2.5396  1.3794
 7443TIP3   OH249251   5.565   5.477   6.575  0.4904 -0.3914  0.4822
 7443TIP3    H149252   5.566   5.430   6.658  2.9424 -0.9395  0.2135
 7443TIP3    H249253   5.554   5.409   6.509  1.5397 -0.3201  0.2222
 7444TIP3   OH249254   3.610   3.295   5.553 -0.3570  0.2139 -0.2580
 7444TIP3    H149255   3.651   3.210   5.540  0.5971  0.7999 -1.3365
 7444TIP3    H249256   3.531   3.292   5.499 -0.4499 -0.0705 -0.1065
 7445TIP3   OH249257   0.288   3.193   0.326  0.4791  0.0227 -0.0109
 7445TIP3    H149258   0.296   3.202   0.231  1.8444  0.8426  0.1572
 7445TIP3    H249259   0.212   3.136   0.338  0.9602 -1.0343 -1.6237
 7446TIP3   OH249260   2.480   1.752   0.964 -0.0699  0.2894 -0.5816
 7446TIP3    H149261   2.495   1.846   0.965  0.7968  0.1746 -1.2242
 7446TIP3    H249262   2.386   1.742   0.975 -0.2877  1.2656 -1.4073
 7447TIP3   OH249263   8.375   2.343   1.560 -0.2365 -0.0683 -0.1396
 7447TIP3    H149264   8.465   2.366   1.583  0.0136 -1.9946  1.0140
 7447TIP3    H249265   8.327   2.426   1.563  1.4412  0.9546 -0.5820
 7448TIP3   OH249266   4.434   0.219   6.061  0.5970  0.2479  0.2660
 7448TIP3    H149267   4.363   0.262   6.109 -0.6172 -0.8681 -0.4310
 7448TIP3    H249268   4.469   0.287   6.003 -0.2809  0.6913  0.2398
 7449TIP3   OH249269   2.986   8.160   0.503 -0.5052  0.0275 -0.2421
 7449TIP3    H149270   2.905   8.115   0.480  0.0410 -0.2087 -1.8235
 7449TIP3    H249271   3.052   8.122   0.444  0.7436  0.2532  0.9567
 7450TIP3   OH249272   5.167   5.892   0.291  0.5063  0.1019 -1.0636
 7450TIP3    H149273   5.175   5.861   0.200  0.5783 -1.1996 -0.6301
 7450TIP3    H249274   5.097   5.957   0.287  2.6935  2.5975 -2.6495
 7451TIP3   OH249275   3.080   4.380   5.643  0.3338  0.5611  0.3088
 7451TIP3    H149276   2.998   4.330   5.637 -0.3925  1.6768  0.6428
 7451TIP3    H249277   3.131   4.349   5.568  0.3065 -1.3409  1.0281
 7452TIP3   OH249278   3.905   2.473   0.590 -0.3967 -0.8851 -0.1240
 7452TIP3    H149279   3.856   2.540   0.639 -0.6529 -1.1619  0.0023
 7452TIP3    H249280   3.923   2.404   0.655 -0.4733 -1.1165 -0.3468
 7453TIP3   OH249281   5.772   0.931   1.214 -0.1112  0.0590  0.0136
 7453TIP3    H149282   5.684   0.955   1.188 -0.0215 -0.0548 -0.4124
 7453TIP3    H249283   5.784   0.970   1.301 -0.8105 -0.4768  0.3581
 7454TIP3   OH249284   2.359   1.467   5.372  0.0618 -0.7264 -0.4947
 7454TIP3    H149285   2.318   1.553   5.367  1.4531 -0.0550 -0.6040
 7454TIP3    H249286   2.379   1.444   5.281  1.0901 -0.4652 -0.3428
 7455TIP3   OH249287   1.024   4.039   5.561  0.3896 -0.4310  0.0880
 7455TIP3    H149288   1.058   3.950   5.554  4.5205  0.9949 -0.5159
 7455TIP3    H249289   1.014   4.068   5.470 -2.5397 -0.6356  0.2231
 7456TIP3   OH249290   7.619   7.944   5.770  0.1777  0.7707  0.2749
 7456TIP3    H149291   7.592   7.979   5.855 -0.2517  2.7428 -0.6180
 7456TIP3    H249292   7.691   8.001   5.743  0.0016  0.4616 -0.8790
 7457TIP3   OH249293   4.043   1.641   1.433  0.2621  0.3202 -0.0659
 7457TIP3    H149294   4.031   1.706   1.502 -0.3525  0.0892  0.0550
 7457TIP3    H249295   4.038   1.557   1.479  1.4826  0.1861 -0.1565
 7458TIP3   OH249296   1.315   0.809   7.002  0.3457  0.4368  0.7895
 7458TIP3    H149297   1.328   0.863   0.009  1.2203 -1.1971  1.8410
 7458TIP3    H249298   1.245   0.748   7.026  1.4366 -0.8674  0.7701
 7459TIP3   OH249299   7.174   2.234   5.964 -0.1968  0.2240  0.1575
 7459TIP3    H149300   7.088   2.200   5.938  0.2027 -0.4743 -0.2912
 7459TIP3    H249301   7.222   2.239   5.882  0.1237  0.8105  0.3823
 7460TIP3   OH249302   7.250   2.041   0.113 -0.0627 -0.5879  0.0869
 7460TIP3    H149303   7.280   2.076   0.197 -3.1124  0.3808  0.9107
 7460TIP3    H249304   7.204   1.960   0.137 -0.8483 -0.3739 -0.6694
 7461TIP3   OH249305   1.150   6.395   1.234  0.5952  0.0294 -0.2266
 7461TIP3    H149306   1.239   6.373   1.210  0.3073 -1.4590 -0.0153
 7461TIP3    H249307   1.158   6.440   1.318  1.2215  1.1103 -0.8325
 7462TIP3   OH249308   8.314   5.163   0.922  0.0190  0.2364  0.2122
 7462TIP3    H149309   8.261   5.088   0.950  2.1901 -1.6202 -0.3291
 7462TIP3    H249310   8.341   5.141   0.833  0.0758  2.0882 -0.2722
 7463TIP3   OH249311   7.121   2.850   6.865 -0.1816 -0.3529 -0.2683
 7463TIP3    H149312   7.109   2.917   6.933  0.2974 -0.3453 -0.1880
 7463TIP3    H249313   7.034   2.812   6.853 -0.1704 -0.7474  0.7661
 7464TIP3   OH249314   3.961   3.973   6.695 -0.2195  0.0994 -0.4803
 7464TIP3    H149315   3.952   4.027   6.617 -0.4791 -0.0700 -0.5703
 7464TIP3    H249316   4.002   3.892   6.664 -1.2259 -0.3732 -0.6312
 7465TIP3   OH249317   4.483   2.136   7.059  0.0996  0.2211 -0.3664
 7465TIP3    H149318   4.511   2.159   0.077  0.0417 -0.1407 -0.2501
 7465TIP3    H249319   4.498   2.215   7.008 -1.3779  0.9646  0.3017
 7466TIP3   OH249320   6.822   3.172   5.693  0.0020  0.0113  0.0372
 7466TIP3    H149321   6.784   3.099   5.742  1.9210 -0.5198  0.8317
 7466TIP3    H249322   6.747   3.217   5.655 -1.3440 -1.3890  0.9136
 7467TIP3   OH249323   0.093   8.174   0.568 -0.0828 -0.5145  0.1648
 7467TIP3    H149324   0.068   8.264   0.545 -0.2711 -0.3287  1.0798
 7467TIP3    H249325   0.011   8.132   0.593  0.2185 -0.4858  1.2444
 7468TIP3   OH249326   0.359   3.813   0.410  0.2097  0.2793  0.0575
 7468TIP3    H149327   0.387   3.737   0.359 -1.7398 -1.3597  1.2693
 7468TIP3    H249328   0.406   3.805   0.493 -0.1149  0.2846  0.2465
 7469TIP3   OH249329   5.174   0.673   5.088  0.3279  0.3291 -0.1985
 7469TIP3    H149330   5.194   0.730   5.014 -2.2252  0.6555 -0.6944
 7469TIP3    H249331   5.227   0.709   5.160  0.3451  2.0384 -1.0133
 7470TIP3   OH249332   4.740   0.448   1.290  0.3948  0.5487 -0.4488
 7470TIP3    H149333   4.762   0.397   1.212 -1.0773  0.2545 -0.7118
 7470TIP3    H249334   4.811   0.511   1.298  0.4640  0.7595 -2.1950
 7471TIP3   OH249335   6.675   7.328   6.014  0.2932 -0.2981 -0.8404
 7471TIP3    H149336   6.632   7.243   6.001 -1.1270  0.5384 -1.9281
 7471TIP3    H249337   6.657   7.350   6.105  1.1834 -1.4101 -0.3706
 7472TIP3   OH249338   0.042   7.063   1.756  0.1058  0.3750 -0.2023
 7472TIP3    H149339   0.053   7.110   1.673 -0.7057  0.7036 -0.1284
 7472TIP3    H249340   0.023   7.131   1.820  0.3522  0.0823  0.1816
 7473TIP3   OH249341   0.591   5.372   0.957  0.1397 -0.0800  0.5152
 7473TIP3    H149342   0.647   5.412   1.023  0.5327 -1.0506  0.7839
 7473TIP3    H249343   0.557   5.293   0.999  0.9310 -1.0774 -0.6749
 7474TIP3   OH249344   1.941   1.030   5.362 -0.1668  0.3530  0.4455
 7474TIP3    H149345   1.947   0.935   5.366 -0.2370  0.3565  0.6291
 7474TIP3    H249346   1.934   1.049   5.268  0.0711  0.1920  0.3922
 7475TIP3   OH249347   6.743   3.548   6.756 -0.2562  0.4019  0.3445
 7475TIP3    H149348   6.754   3.643   6.760  1.0262  0.2897  0.0518
 7475TIP3    H249349   6.650   3.535   6.742 -0.1576  1.7204 -2.0855
 7476TIP3   OH249350   2.550   4.673   4.860 -0.0999  0.3415  0.4790
 7476TIP3    H149351   2.489   4.745   4.846 -1.1565 -0.4894  0.6766
 7476TIP3    H249352   2.606   4.702   4.931 -1.2476  0.5473  1.3357
 7477TIP3   OH249353   6.792   8.048   0.375 -0.0258 -0.1159  0.5694
 7477TIP3    H149354   6.770   8.015   0.462  0.4431 -0.3501  0.6018
 7477TIP3    H249355   6.868   8.104   0.389  1.8934 -2.4072 -0.0506
 7478TIP3   OH249356   1.737   6.903   0.369 -0.1026  0.0568 -1.1436
 7478TIP3    H149357   1.794   6.963   0.322  1.3260 -1.1842 -1.0802
 7478TIP3    H249358   1.668   6.881   0.307 -0.3351  1.3150 -1.3498
 7479TIP3   OH249359   2.468   5.890   6.044 -0.2497 -0.4046  0.1068
 7479TIP3    H149360   2.510   5.808   6.072 -0.1495  0.1404  1.6856
 7479TIP3    H249361   2.489   5.898   5.951  0.7028 -1.6054  0.2003
 7480TIP3   OH249362   8.379   5.890   4.860  0.3963 -0.3133 -0.2985
 7480TIP3    H149363   8.450   5.876   4.923 -0.7779 -0.1440  1.1103
 7480TIP3    H249364   8.336   5.805   4.853  0.3390 -0.2569 -0.6670
 7481TIP3   OH249365   1.939   2.102   5.796  0.2144 -0.2516 -0.2078
 7481TIP3    H149366   1.946   2.176   5.857  0.6406 -0.8728  0.5104
 7481TIP3    H249367   1.947   2.024   5.852 -0.2621 -0.8416 -0.9532
 7482TIP3   OH249368   1.163   8.385   0.826  0.1520  0.1038 -0.2988
 7482TIP3    H149369   1.241   8.387   0.769  0.5247 -0.4830  0.1848
 7482TIP3    H249370   1.186   8.443   0.899  0.1277 -0.0626 -0.1601
 7483TIP3   OH249371   0.650   3.442   0.631  0.1275  0.0520  0.5949
 7483TIP3    H149372   0.670   3.374   0.695 -0.9846 -1.5917 -0.7440
 7483TIP3    H249373   0.562   3.472   0.654 -0.2450 -0.4911 -0.1121
 7484TIP3   OH249374   6.559   4.346   0.103 -0.1520  0.1213 -0.3415
 7484TIP3    H149375   6.537   4.337   0.196  1.7989  1.5147  0.3270
 7484TIP3    H249376   6.619   4.274   0.085  0.4740  0.5813 -0.1458
 7485TIP3   OH249377   2.584   0.687   0.256 -0.7215  0.3965  0.4752
 7485TIP3    H149378   2.539   0.604   0.245  0.3715 -0.1567  0.0150
 7485TIP3    H249379   2.575   0.731   0.171 -1.0573  0.6311  0.6296
 7486TIP3   OH249380   0.328   6.129   5.648 -0.3810 -0.0195 -0.4206
 7486TIP3    H149381   0.365   6.211   5.616 -1.3152  0.7150  0.3359
 7486TIP3    H249382   0.299   6.083   5.569  0.6876  0.0839 -0.8982
 7487TIP3   OH249383   1.237   3.895   0.709 -0.0752  0.3154  0.0979
 7487TIP3    H149384   1.222   3.899   0.804  2.4522  0.6685  0.5548
 7487TIP3    H249385   1.272   3.981   0.687  2.7868 -0.8693 -0.4038
 7488TIP3   OH249386   0.864   6.477   7.065  0.6760  0.3753  0.0139
 7488TIP3    H149387   0.941   6.527   7.037  0.1318  0.3938 -1.5632
 7488TIP3    H249388   0.817   6.536   0.052  0.8367  1.1347 -0.6100
 7489TIP3   OH249389   4.115   1.879   6.097  0.0265  1.2139  0.0764
 7489TIP3    H149390   4.129   1.933   6.019 -0.1666  0.4494 -0.5018
 7489TIP3    H249391   4.020   1.874   6.106 -0.0159 -0.5281 -0.9691
 7490TIP3   OH249392   4.637   2.865   6.352  1.1372 -0.1224 -0.0039
 7490TIP3    H149393   4.728   2.865   6.320  0.5700  0.9986 -1.7464
 7490TIP3    H249394   4.636   2.932   6.420  1.9233 -1.1646  1.0779
 7491TIP3   OH249395   7.643   4.152   5.413 -0.1824 -0.7859  0.4372
 7491TIP3    H149396   7.713   4.118   5.357 -0.9900 -1.0618 -0.4291
 7491TIP3    H249397   7.635   4.244   5.389 -0.4398 -0.8735  0.1682
 7492TIP3   OH249398   4.267   6.198   5.575 -0.7386  0.5028 -0.4916
 7492TIP3    H149399   4.230   6.268   5.629 -1.5828 -1.1343  1.1624
 7492TIP3    H249400   4.192   6.155   5.535 -0.6668 -1.8954  1.6899
 7493TIP3   OH249401   5.457   8.064   5.477 -0.2863  0.8271  0.3496
 7493TIP3    H149402   5.473   8.019   5.560 -0.0054  0.2920  0.0063
 7493TIP3    H249403   5.363   8.078   5.475 -0.4041  0.0684  0.3619
 7494TIP3   OH249404   2.491   8.316   6.593 -0.1048  0.2313 -0.3087
 7494TIP3    H149405   2.411   8.318   6.646  0.6433 -0.3070  0.8711
 7494TIP3    H249406   2.481   8.390   6.533  0.4849  3.0696  2.7880
 7495TIP3   OH249407   3.363   6.748   4.981  0.2431  0.2253 -0.4105
 7495TIP3    H149408   3.375   6.811   5.052 -0.1352  0.7847 -0.8308
 7495TIP3    H249409   3.398   6.792   4.903  0.5169 -0.3208 -0.6072
 7496TIP3   OH249410   1.119   0.338   1.077  0.4016 -0.0403 -0.0699
 7496TIP3    H149411   1.038   0.317   1.031 -0.1340 -0.8474  1.1728
 7496TIP3    H249412   1.099   0.324   1.169  1.5046  1.3112  0.4082
 7497TIP3   OH249413   3.943   6.084   0.473 -0.0135  0.6108  0.1526
 7497TIP3    H149414   4.026   6.043   0.497 -0.3765 -0.4439 -0.3513
 7497TIP3    H249415   3.878   6.015   0.483 -0.6644  1.1000 -0.5604
 7498TIP3   OH249416   6.867   6.105   5.018 -0.3944 -0.3730  0.1496
 7498TIP3    H149417   6.891   6.042   5.086  1.9226  0.5673  0.3085
 7498TIP3    H249418   6.843   6.052   4.943 -0.5360 -1.4384  0.9306
 7499TIP3   OH249419   6.255   0.366   6.759 -0.0499 -0.0880 -0.4975
 7499TIP3    H149420   6.276   0.440   6.817 -1.0039 -0.5312  0.4526
 7499TIP3    H249421   6.300   0.386   6.677 -0.4387  1.6549 -0.3304
 7500TIP3   OH249422   7.181   1.821   6.080 -0.1798  0.6612  0.8705
 7500TIP3    H149423   7.087   1.802   6.087 -0.2318 -0.1219 -1.2508
 7500TIP3    H249424   7.224   1.750   6.127 -0.6390  1.7159  2.9762
 7501TIP3   OH249425   7.254   4.917   5.998  0.4660  0.5840 -0.1082
 7501TIP3    H149426   7.218   4.922   5.910 -3.2760  0.6426  1.2307
 7501TIP3    H249427   7.193   4.859   6.045 -0.1115  3.6888  3.4142
 7502TIP3   OH249428   8.353   7.443   6.951  0.0705  0.4021  0.1833
 7502TIP3    H149429   8.360   7.361   6.998 -1.2862 -0.5483 -1.1847
 7502TIP3    H249430   8.340   7.509   7.019  0.7383 -0.5537  1.2669
 7503TIP3   OH249431   2.881   2.309   1.065  0.1440 -0.5514  0.3311
 7503TIP3    H149432   2.840   2.282   1.147  0.7015  0.1158  0.8427
 7503TIP3    H249433   2.957   2.361   1.092  0.3035 -0.2740 -0.6095
 7504TIP3   OH249434   5.919   8.034   6.153 -0.3125 -0.0765 -0.5235
 7504TIP3    H149435   5.979   8.078   6.212 -1.2590  0.6262 -0.0476
 7504TIP3    H249436   5.912   7.945   6.188 -0.8234  0.3168  0.4259
 7505TIP3   OH249437   7.818   5.665   1.246 -0.5071 -0.6410 -0.3563
 7505TIP3    H149438   7.751   5.598   1.247  2.2314 -3.6833 -1.9437
 7505TIP3    H249439   7.819   5.698   1.156  1.0574 -1.7695 -0.7916
 7506TIP3   OH249440   2.250   1.270   0.222  0.2386  0.6527 -0.1092
 7506TIP3    H149441   2.229   1.227   0.305 -1.3424  2.7827  0.6997
 7506TIP3    H249442   2.334   1.313   0.239  0.1336  0.7208  0.2667
 7507TIP3   OH249443   8.303   6.826   1.226  0.1105 -0.7617  0.0888
 7507TIP3    H149444   8.292   6.763   1.297  0.1483 -0.5148  0.3135
 7507TIP3    H249445   8.366   6.784   1.167  0.6984 -0.6262  0.6067
 7508TIP3   OH249446   6.747   0.454   1.782  0.3772  0.3970  0.3212
 7508TIP3    H149447   6.704   0.377   1.819  1.6330 -0.7525 -0.5014
 7508TIP3    H249448   6.771   0.508   1.857 -0.7408  0.1181  0.8896
 7509TIP3   OH249449   1.898   7.330   0.630 -0.4222 -0.6836 -0.2817
 7509TIP3    H149450   1.867   7.268   0.696 -2.7513 -0.2717 -0.8907
 7509TIP3    H249451   1.902   7.279   0.549  1.0646 -0.8413 -0.1379
 7510TIP3   OH249452   2.020   7.562   7.012 -0.1439  0.1850 -0.5083
 7510TIP3    H149453   2.000   7.517   6.930 -1.3857 -0.4670  0.1280
 7510TIP3    H249454   2.011   7.494   0.009 -1.4349  1.2154  0.4031
 7511TIP3   OH249455   6.908   2.766   1.274  0.0011 -0.1464 -0.2842
 7511TIP3    H149456   6.924   2.680   1.314  0.0540 -0.5229 -1.0863
 7511TIP3    H249457   6.903   2.748   1.180  0.9431  0.8669 -0.5450
 7512TIP3   OH249458   3.654   4.173   1.299 -0.3090  0.0607  0.2919
 7512TIP3    H149459   3.591   4.108   1.267 -0.8319  0.7993 -0.2194
 7512TIP3    H249460   3.717   4.123   1.351 -0.5802 -0.8795 -0.2723
 7513TIP3   OH249461   4.455   6.253   5.395 -0.4117  0.4715 -0.6641
 7513TIP3    H149462   4.401   6.234   5.472  0.7816 -0.3313  0.0035
 7513TIP3    H249463   4.433   6.186   5.332  0.9462 -0.8883  0.2275
 7514TIP3   OH249464   8.029   0.646   0.579  0.4203  0.1249  0.4367
 7514TIP3    H149465   8.097   0.700   0.539  1.5250 -1.7681 -0.4046
 7514TIP3    H249466   8.056   0.636   0.670  0.0719  1.1589  0.6628
 7515TIP3   OH249467   1.013   5.141   1.199  0.2933 -0.1959 -0.3858
 7515TIP3    H149468   1.098   5.149   1.242 -0.1960 -1.3722  0.8700
 7515TIP3    H249469   0.965   5.218   1.228  0.9336  0.4944 -1.1308
 7516TIP3   OH249470   7.634   2.152   1.218  0.4838 -0.8931 -0.2175
 7516TIP3    H149471   7.652   2.245   1.235 -0.3928 -0.7460 -0.0360
 7516TIP3    H249472   7.654   2.109   1.301 -0.7530 -0.6112  0.2583
 7517TIP3   OH249473   5.339   6.236   5.564  0.1934  0.1297 -0.0847
 7517TIP3    H149474   5.330   6.149   5.601  1.9508  0.0256  0.1502
 7517TIP3    H249475   5.432   6.245   5.543  0.4217  2.5743  1.5038
 7518TIP3   OH249476   2.240   6.166   1.055  0.4819 -0.1773 -0.2002
 7518TIP3    H149477   2.282   6.079   1.053  1.1858  0.1602 -0.3226
 7518TIP3    H249478   2.311   6.226   1.075  0.2970  0.5420 -1.5551
 7519TIP3   OH249479   0.046   6.781   1.096  0.4497  0.2620 -0.7578
 7519TIP3    H149480   0.093   6.857   1.060  0.2776  0.3010 -0.9036
 7519TIP3    H249481   0.096   6.705   1.067  2.4200  0.3837  1.9023
 7520TIP3   OH249482   6.911   3.351   1.344 -0.2680 -0.7312 -0.0120
 7520TIP3    H149483   6.972   3.305   1.286  0.6094 -0.0675  0.3658
 7520TIP3    H249484   6.912   3.301   1.426 -1.2279 -1.4557 -0.4200
 7521TIP3   OH249485   7.021   4.886   6.565 -0.1314 -0.2528  0.2468
 7521TIP3    H149486   6.968   4.912   6.640 -1.8618 -2.2751 -0.1918
 7521TIP3    H249487   7.073   4.813   6.596  2.2003  1.4333  0.5374
 7522TIP3   OH249488   8.035   0.759   6.569 -0.2100 -0.1582 -0.4119
 7522TIP3    H149489   8.108   0.697   6.563  0.4047  0.5553 -0.4909
 7522TIP3    H249490   7.976   0.721   6.635  0.9597 -0.0209  0.7531
 7523TIP3   OH249491   2.953   3.984   5.431  0.2519 -0.0990  0.0090
 7523TIP3    H149492   2.867   3.952   5.405  0.8956 -0.9263 -1.2331
 7523TIP3    H249493   3.012   3.911   5.414  1.4902  1.0777 -1.0560
 7524TIP3   OH249494   3.905   8.065   0.389  0.7923  0.3951 -0.3514
 7524TIP3    H149495   3.967   8.096   0.323 -0.4661  0.8985 -1.3424
 7524TIP3    H249496   3.819   8.086   0.353  0.0616  1.1287  1.6631
 7525TIP3   OH249497   7.606   5.474   1.304  0.0983 -0.3405  0.7038
 7525TIP3    H149498   7.525   5.481   1.254  0.5680  0.1310 -0.0179
 7525TIP3    H249499   7.613   5.382   1.326  0.0097 -0.6154 -0.3491
 7526TIP3   OH249500   0.501   6.918   0.386 -0.4598 -0.4152 -0.0613
 7526TIP3    H149501   0.522   6.994   0.440  0.8817 -0.3586 -0.6194
 7526TIP3    H249502   0.506   6.950   0.296 -0.6815 -0.9787 -0.2799
 7527TIP3   OH249503   0.836   5.423   5.147  0.1757  0.3743 -0.3936
 7527TIP3    H149504   0.901   5.492   5.138  2.3891 -1.2349  1.7938
 7527TIP3    H249505   0.869   5.352   5.092 -0.5676  0.0659 -0.4515
 7528TIP3   OH249506   6.079   1.310   0.590 -0.6380 -0.4268 -0.4045
 7528TIP3    H149507   6.011   1.299   0.656  0.5113 -1.5062  0.6383
 7528TIP3    H249508   6.140   1.374   0.628 -0.2409 -0.6613 -0.6435
 7529TIP3   OH249509   1.496   3.703   6.247  0.1185 -0.3287 -0.0553
 7529TIP3    H149510   1.424   3.655   6.287  0.4933 -0.0582  0.9889
 7529TIP3    H249511   1.575   3.661   6.282  0.4595  0.0928 -0.3015
 7530TIP3   OH249512   7.608   8.241   6.014  0.1300  0.1295 -0.5963
 7530TIP3    H149513   7.657   8.314   5.978  0.3247  0.5456  0.4788
 7530TIP3    H249514   7.518   8.273   6.021  0.1812  0.2100 -0.2890
 7531TIP3   OH249515   6.418   5.688   6.881  0.4532  0.2694 -0.3911
 7531TIP3    H149516   6.338   5.742   6.881  0.5611  0.4672 -1.6060
 7531TIP3    H249517   6.471   5.723   6.952  1.8862  3.9523 -2.9389
 7532TIP3   OH249518   0.206   7.288   0.403 -0.0874 -0.2948 -0.3953
 7532TIP3    H149519   0.178   7.367   0.357  2.5316  0.7752 -0.3624
 7532TIP3    H249520   0.182   7.304   0.494  1.8136  1.2824 -0.0964
 7533TIP3   OH249521   6.291   2.947   6.455 -0.2308  0.7995 -0.0900
 7533TIP3    H149522   6.296   3.001   6.376  1.6259 -2.2175 -2.2375
 7533TIP3    H249523   6.220   2.884   6.437  0.1612  0.1187  0.6792
 7534TIP3   OH249524   2.024   7.570   6.138 -0.1774 -0.3391 -0.2412
 7534TIP3    H149525   2.041   7.479   6.114  0.2584 -0.3574  0.1078
 7534TIP3    H249526   2.022   7.618   6.055  2.7597 -0.1506 -0.3053
 7535TIP3   OH249527   5.576   3.879   1.201 -0.4744  0.3914  0.1607
 7535TIP3    H149528   5.647   3.898   1.263  1.6161 -0.5951 -1.7873
 7535TIP3    H249529   5.574   3.956   1.143 -1.2727  0.5659  0.4058
 7536TIP3   OH249530   6.240   2.995   1.842 -0.3764 -0.6804 -0.0080
 7536TIP3    H149531   6.330   2.976   1.814 -0.4475 -0.8875 -0.0961
 7536TIP3    H249532   6.207   3.056   1.777  0.0343  0.1870  0.5720
 7537TIP3   OH249533   8.082   5.402   6.001 -0.2741  0.1555  0.3194
 7537TIP3    H149534   8.066   5.458   6.077  1.7335 -0.5917  1.3691
 7537TIP3    H249535   8.036   5.321   6.021 -1.3064  0.5954 -0.1712
 7538TIP3   OH249536   6.707   4.082   0.104  0.3839  0.6089  0.1916
 7538TIP3    H149537   6.734   4.022   0.173  1.8272  1.8652  0.7526
 7538TIP3    H249538   6.714   4.030   0.023  2.2944  0.2185  0.5758
 7539TIP3   OH249539   7.706   2.418   1.185 -0.3051 -0.1267 -0.0101
 7539TIP3    H149540   7.652   2.493   1.160  0.3010  0.0508 -0.8124
 7539TIP3    H249541   7.788   2.455   1.216  0.5648 -0.4686 -1.7866
 7540TIP3   OH249542   0.466   5.773   1.276 -0.0957 -0.0546 -0.1429
 7540TIP3    H149543   0.429   5.856   1.304 -1.1993 -0.7634  0.5903
 7540TIP3    H249544   0.514   5.793   1.196  0.3233  1.4228  0.4468
 7541TIP3   OH249545   3.874   5.993   0.902  0.3983  0.5401 -0.1681
 7541TIP3    H149546   3.834   6.068   0.946 -1.4721 -0.5600  0.1157
 7541TIP3    H249547   3.815   5.920   0.921  1.8816 -0.8934 -0.8851
 7542TIP3   OH249548   7.430   1.963   5.741 -0.4887  0.2226  0.0323
 7542TIP3    H149549   7.335   1.973   5.731 -0.5976 -1.9552 -2.0089
 7542TIP3    H249550   7.466   1.984   5.655  0.7312 -0.3014  0.3924
 7543TIP3   OH249551   4.898   5.562   6.593 -0.3890  0.6809 -0.2509
 7543TIP3    H149552   4.964   5.521   6.648 -2.4035 -1.9284  0.4208
 7543TIP3    H249553   4.895   5.508   6.514 -1.7035  0.7072 -0.2473
 7544TIP3   OH249554   0.344   4.492   0.308 -0.3356  0.4598 -0.1546
 7544TIP3    H149555   0.429   4.523   0.278  0.0242  0.2004  0.5751
 7544TIP3    H249556   0.281   4.538   0.252  0.3196 -0.9769 -2.1916
 7545TIP3   OH249557   6.349   4.639   5.974 -0.3035 -0.0357 -0.2094
 7545TIP3    H149558   6.395   4.601   6.049  0.1062  0.6626 -0.0975
 7545TIP3    H249559   6.265   4.593   5.971  0.1200 -0.8415  0.0066
 7546TIP3   OH249560   6.503   3.905   5.340  0.2132 -0.4204 -0.1109
 7546TIP3    H149561   6.581   3.946   5.301 -0.5024 -1.1221 -2.4799
 7546TIP3    H249562   6.449   3.980   5.366  1.8822  0.0862  2.2008
 7547TIP3   OH249563   1.755   5.841   0.106  0.1008 -0.3644  0.9510
 7547TIP3    H149564   1.721   5.776   0.167 -1.5177 -3.0766 -2.4947
 7547TIP3    H249565   1.687   5.908   0.102  0.9213  0.6954  3.0992
 7548TIP3   OH249566   7.934   3.688   6.733  0.1831  0.0565 -0.2947
 7548TIP3    H149567   7.903   3.758   6.791 -0.4255  0.0294 -0.5772
 7548TIP3    H249568   7.860   3.628   6.727  0.2521  0.0395 -1.0643
 7549TIP3   OH249569   7.437   5.165   2.449  0.6867  0.7307  0.1260
 7549TIP3    H149570   7.419   5.186   2.358  0.0494  0.5912  0.2118
 7549TIP3    H249571   7.472   5.076   2.447 -0.9379  0.0565  0.1492
 7550TIP3   OH249572   8.367   6.680   0.823 -0.4353 -0.3055 -0.5009
 7550TIP3    H149573   8.381   6.770   0.854  0.5921 -1.0451  1.2784
 7550TIP3    H249574   8.450   6.656   0.782 -0.0144 -1.0909  0.7651
 7551TIP3   OH249575   4.487   8.524   1.896  0.1104 -0.9515  0.6473
 7551TIP3    H149576   4.575   0.024   1.913 -0.3486 -0.7063  2.7904
 7551TIP3    H249577   4.482   8.446   1.951 -0.0731 -2.6135 -1.5706
 7552TIP3   OH249578   2.856   3.601   0.665 -0.2812  0.2272 -0.0270
 7552TIP3    H149579   2.898   3.556   0.739 -1.7846 -1.2092  0.0115
 7552TIP3    H249580   2.812   3.676   0.704 -1.3240 -0.6947  0.6135
 7553TIP3   OH249581   0.820   7.526   0.109 -0.0560 -0.7657 -0.3519
 7553TIP3    H149582   0.804   7.527   0.203  0.0125 -2.6826 -0.2786
 7553TIP3    H249583   0.911   7.554   0.099  0.5923 -2.4637  0.3667
 7554TIP3   OH249584   5.510   6.038   6.264  0.1137  0.3967 -0.3012
 7554TIP3    H149585   5.520   6.119   6.215 -1.8395  0.8276 -0.0539
 7554TIP3    H249586   5.480   5.974   6.199 -1.1177  0.6154  0.0321
 7555TIP3   OH249587   3.777   7.837   0.386 -0.1732  0.0738  0.2229
 7555TIP3    H149588   3.749   7.842   0.295 -0.6009 -0.7291  0.3021
 7555TIP3    H249589   3.842   7.907   0.395  0.5882 -0.4503 -0.9487
 7556TIP3   OH249590   0.418   2.867   5.181  0.2899  0.4556 -0.2628
 7556TIP3    H149591   0.332   2.889   5.218  0.8251  0.9824  0.7082
 7556TIP3    H249592   0.401   2.790   5.126 -0.7442  0.3399  0.1871
 7557TIP3   OH249593   6.091   7.631   6.671 -0.6626 -0.5874 -0.5003
 7557TIP3    H149594   6.018   7.618   6.732  0.9565 -1.8739  1.2535
 7557TIP3    H249595   6.158   7.570   6.700  1.7263  1.5691 -1.1111
 7558TIP3   OH249596   2.997   4.813   7.037 -0.8724  0.4222 -0.0854
 7558TIP3    H149597   3.023   4.904   7.023 -1.5194  0.8491  1.3182
 7558TIP3    H249598   3.076   4.762   7.018 -0.3496  1.3194 -0.3497
 7559TIP3   OH249599   7.802   3.734   6.421 -0.2892  0.3834 -0.3551
 7559TIP3    H149600   7.815   3.648   6.461 -1.6690 -0.1977 -1.0937
 7559TIP3    H249601   7.791   3.716   6.328  0.7259  1.5083 -0.7110
 7560TIP3   OH249602   5.495   4.211   0.338 -0.0815  0.4533  0.1913
 7560TIP3    H149603   5.484   4.306   0.334  3.3313  0.9870 -0.2192
 7560TIP3    H249604   5.473   4.181   0.250 -2.2239  0.6477  0.6150
 7561TIP3   OH249605   7.813   2.570   0.658 -0.2834 -0.0523  0.2439
 7561TIP3    H149606   7.893   2.564   0.711 -0.2946 -0.6292  0.1978
 7561TIP3    H249607   7.815   2.659   0.623  0.2485 -0.0017  0.3872
 7562TIP3   OH249608   4.666   6.229   6.343 -0.0329 -0.4796  0.0730
 7562TIP3    H149609   4.653   6.247   6.436  1.3455 -0.7772  0.3471
 7562TIP3    H249610   4.760   6.211   6.335 -0.1238 -0.4154 -1.3841
 7563TIP3   OH249611   6.122   8.268   1.871  0.0839 -0.6968 -0.5525
 7563TIP3    H149612   6.161   8.283   1.785 -2.2614  0.8079 -1.4396
 7563TIP3    H249613   6.028   8.274   1.856 -0.3768  0.8539  2.3461
 7564TIP3   OH249614   0.812   0.824   0.835 -0.1544 -0.0400  0.2810
 7564TIP3    H149615   0.824   0.918   0.819 -2.2489 -0.1466 -2.9489
 7564TIP3    H249616   0.736   0.818   0.893 -1.3959  0.3103 -1.2509
 7565TIP3   OH249617   2.702   5.387   6.631  0.1240  0.0952 -1.0758
 7565TIP3    H149618   2.709   5.309   6.687 -0.2132  0.5965 -0.3267
 7565TIP3    H249619   2.611   5.414   6.639  0.4512  1.0888 -0.6184
 7566TIP3   OH249620   5.975   0.234   6.110  0.4333 -0.4043  0.7360
 7566TIP3    H149621   5.944   0.274   6.029 -0.9680 -0.8271  1.0402
 7566TIP3    H249622   5.979   0.307   6.172  0.7826 -0.2159  0.4961
 7567TIP3   OH249623   3.249   3.910   0.005  0.0452 -0.0620 -0.0460
 7567TIP3    H149624   3.314   3.933   0.071 -1.0516  0.1485  1.0129
 7567TIP3    H249625   3.258   3.976   7.008 -0.6468  1.4213  1.2442
 7568TIP3   OH249626   6.199   7.516   0.393 -0.1342 -0.6586 -0.0939
 7568TIP3    H149627   6.109   7.535   0.420 -0.0435  0.5497 -0.5936
 7568TIP3    H249628   6.212   7.567   0.313  1.3109 -0.0141  0.5048
 7569TIP3   OH249629   5.217   2.284   1.770  0.1041  0.8097 -0.3568
 7569TIP3    H149630   5.177   2.240   1.695 -0.1235  0.1937  0.1239
 7569TIP3    H249631   5.300   2.239   1.783  0.1482  0.9234 -0.2413
 7570TIP3   OH249632   3.393   5.917   6.566  0.2603 -0.1422 -0.0939
 7570TIP3    H149633   3.486   5.902   6.582  0.1729  0.1938  0.8201
 7570TIP3    H249634   3.390   5.974   6.489  0.8642  0.7300  0.5143
 7571TIP3   OH249635   8.261   8.199   5.106  0.1684 -0.1330  0.0094
 7571TIP3    H149636   8.240   8.107   5.089  1.0446 -0.1440 -1.1376
 7571TIP3    H249637   8.338   8.217   5.052 -0.0303  1.3066  0.1552
 7572TIP3   OH249638   0.311   2.120   6.603 -0.0103 -0.1228 -0.2990
 7572TIP3    H149639   0.246   2.052   6.617 -0.0300 -0.0062  0.1845
 7572TIP3    H249640   0.340   2.107   6.513  0.2048 -0.9640 -0.1207
 7573TIP3   OH249641   7.898   1.194   1.280 -0.0671  0.4305 -0.1315
 7573TIP3    H149642   7.930   1.236   1.360 -1.3550  3.8618 -1.2435
 7573TIP3    H249643   7.970   1.201   1.218 -0.6698  2.2005 -0.6720
 7574TIP3   OH249644   2.059   0.795   5.114 -0.4970  0.3463  0.5919
 7574TIP3    H149645   2.002   0.719   5.117  0.4827 -0.4594 -0.2785
 7574TIP3    H249646   2.146   0.761   5.136 -0.0434  1.2099  0.2098
 7575TIP3   OH249647   0.173   6.647   6.720  0.4288 -0.0812 -0.0865
 7575TIP3    H149648   0.255   6.693   6.707 -0.7484  2.4022  0.6162
 7575TIP3    H249649   0.161   6.645   6.815  0.4838 -2.0423 -0.0783
 7576TIP3   OH249650   1.171   7.136   6.696 -0.2868  0.5170 -0.1310
 7576TIP3    H149651   1.157   7.045   6.670 -0.1183  0.4352  0.0626
 7576TIP3    H249652   1.129   7.144   6.782  1.3544  0.1017  0.7489
 7577TIP3   OH249653   1.207   8.008   6.639 -0.2338 -0.1860 -0.0798
 7577TIP3    H149654   1.213   8.043   6.550  1.0115 -0.2456 -0.0427
 7577TIP3    H249655   1.140   7.939   6.633 -0.7608  0.3677 -0.7710
 7578TIP3   OH249656   6.342   7.891   6.531  0.0561  0.1876  0.0525
 7578TIP3    H149657   6.355   7.982   6.503 -1.0551 -0.2607 -2.1599
 7578TIP3    H249658   6.249   7.887   6.555  0.4148 -0.0657  1.4577
 7579TIP3   OH249659   3.007   4.203   5.932  0.4090  0.0806  0.2922
 7579TIP3    H149660   3.010   4.140   6.004 -2.1305  0.3950  0.7693
 7579TIP3    H249661   3.019   4.149   5.854  0.1520 -0.7418  0.7972
 7580TIP3   OH249662   7.305   5.132   0.065  0.2007  0.0750  0.5554
 7580TIP3    H149663   7.245   5.202   0.041  1.6424  1.2380  0.2152
 7580TIP3    H249664   7.390   5.162   0.034  0.7631 -2.1551 -0.2388
 7581TIP3   OH249665   7.090   6.819   5.967  0.1237 -0.5316  0.3367
 7581TIP3    H149666   7.183   6.795   5.962 -0.3841 -2.6539 -0.0852
 7581TIP3    H249667   7.073   6.830   6.060  0.9436  0.5680  0.3722
 7582TIP3   OH249668   7.804   5.077   0.307 -0.6018  0.5820  0.6795
 7582TIP3    H149669   7.731   5.023   0.277 -0.1944  0.7398 -0.6600
 7582TIP3    H249670   7.847   5.024   0.375  0.7257 -1.5387 -1.6548
 7583TIP3   OH249671   7.597   4.366   5.934 -0.7467 -0.2388 -0.6141
 7583TIP3    H149672   7.610   4.357   5.839 -1.4512 -0.9083 -0.6578
 7583TIP3    H249673   7.529   4.432   5.943 -2.0089 -1.4916 -0.6683
 7584TIP3   OH249674   2.798   5.851   0.915 -0.3159 -0.1408  0.2516
 7584TIP3    H149675   2.837   5.771   0.948 -0.7447 -0.3742  0.2032
 7584TIP3    H249676   2.864   5.919   0.929  0.2731 -0.6112 -0.2416
 7585TIP3   OH249677   2.333   6.694   1.071  0.3281  0.0077  0.3134
 7585TIP3    H149678   2.364   6.611   1.035  1.1833  0.2544  0.4563
 7585TIP3    H249679   2.340   6.682   1.166  1.0272  0.4374  0.3285
 7586TIP3   OH249680   8.345   7.050   6.400 -0.0863  0.1280  0.1010
 7586TIP3    H149681   8.440   7.043   6.405  0.1676  2.7737  0.3455
 7586TIP3    H249682   8.313   7.002   6.477  0.8734 -2.4591 -1.0254
 7587TIP3   OH249683   4.221   0.523   0.179  0.2985 -0.2780  0.0645
 7587TIP3    H149684   4.226   0.434   0.213  0.7094 -0.0716  0.5618
 7587TIP3    H249685   4.312   0.552   0.173  0.1953 -0.0758 -0.5896
 7588TIP3   OH249686   3.661   1.506   0.764 -0.0104  0.5090  0.3925
 7588TIP3    H149687   3.639   1.434   0.822  0.0967  1.1904  1.3086
 7588TIP3    H249688   3.756   1.498   0.751 -0.2110 -0.3472 -0.6854
 7589TIP3   OH249689   8.459   5.614   6.301  0.0727 -0.4714 -0.2088
 7589TIP3    H149690   8.464   5.528   6.342 -1.6226 -0.7606 -0.5343
 7589TIP3    H249691   8.436   5.597   6.210 -0.6539  0.3312 -0.1896
 7590TIP3   OH249692   4.433   2.845   6.180  0.3924  0.1052 -0.2081
 7590TIP3    H149693   4.505   2.882   6.231 -0.2901  0.8272  0.2489
 7590TIP3    H249694   4.476   2.800   6.107  1.2707  1.3537 -0.4856
 7591TIP3   OH249695   0.579   8.141   0.333 -0.1196  0.4747  0.0038
 7591TIP3    H149696   0.567   8.194   0.412  0.8078 -0.7278  0.9802
 7591TIP3    H249697   0.652   8.183   0.287  1.0101 -0.2406  1.0744
 7592TIP3   OH249698   5.474   8.509   6.034  0.3555 -0.3898  0.3251
 7592TIP3    H149699   5.507   0.052   5.991  1.5221 -0.8841  0.2708
 7592TIP3    H249700   5.405   0.005   6.091 -0.1500  0.4908 -0.7295
 7593TIP3   OH249701   1.722   4.825   6.877  0.1935  0.2141  0.0030
 7593TIP3    H149702   1.657   4.873   6.826  1.4759 -0.3641 -2.3596
 7593TIP3    H249703   1.806   4.863   6.850  0.9723 -0.4854  1.3318
 7594TIP3   OH249704   4.479   5.300   1.067 -0.3956  0.6485  0.5228
 7594TIP3    H149705   4.391   5.336   1.060 -0.4627  0.5340  0.7671
 7594TIP3    H249706   4.522   5.355   1.133  0.1210  1.5023 -0.4837
 7595TIP3   OH249707   5.964   3.565   0.290 -0.0366 -0.1953 -0.0004
 7595TIP3    H149708   6.002   3.652   0.295 -1.5164  0.4806 -0.1241
 7595TIP3    H249709   6.040   3.506   0.293  0.9240  1.0116  1.8223
 7596TIP3   OH249710   0.397   6.270   1.423  0.1477  0.2195 -0.5648
 7596TIP3    H149711   0.345   6.286   1.502  0.1349 -0.3356 -0.4628
 7596TIP3    H249712   0.485   6.299   1.446  0.0103  0.6476 -0.5583
 7597TIP3   OH249713   7.931   5.382   0.047  0.4964 -0.0444 -0.2112
 7597TIP3    H149714   8.004   5.443   0.036 -0.9110  1.6202 -0.8768
 7597TIP3    H249715   7.972   5.298   0.066  2.6276  0.5495 -1.8033
 7598TIP3   OH249716   7.811   5.922   6.084  0.2576  0.1274 -0.1625
 7598TIP3    H149717   7.885   5.925   6.145 -0.6159 -1.0910  1.0196
 7598TIP3    H249718   7.848   5.885   6.004  1.2080  0.8168 -0.0725
 7599TIP3   OH249719   0.825   6.741   5.151  0.1336  0.3810 -0.3734
 7599TIP3    H149720   0.806   6.832   5.173  0.4350  0.7741 -1.6382
 7599TIP3    H249721   0.920   6.734   5.156  0.2628  0.6477 -2.0584
 7600TIP3   OH249722   8.209   7.896   0.796  0.1967  0.5150  0.4114
 7600TIP3    H149723   8.139   7.925   0.737  2.1388 -0.1471 -2.4452
 7600TIP3    H249724   8.191   7.803   0.811  0.0083  0.5424  0.3569
 7601TIP3   OH249725   5.518   1.259   6.375 -0.3794 -0.1175 -0.3276
 7601TIP3    H149726   5.438   1.234   6.420 -0.3148  0.9615  0.4189
 7601TIP3    H249727   5.489   1.321   6.307 -0.6171 -2.5315 -2.5625
 7602TIP3   OH249728   5.522   7.031   1.242 -0.4704 -0.2163  0.6448
 7602TIP3    H149729   5.466   7.046   1.317  1.9023  0.0166  2.4945
 7602TIP3    H249730   5.565   6.948   1.260  0.6031  0.1384 -0.1409
 7603TIP3   OH249731   0.008   5.439   6.013 -0.3425 -0.6247  0.1744
 7603TIP3    H149732   8.464   5.400   6.051 -0.5022 -0.7423 -0.2617
 7603TIP3    H249733   8.510   5.505   5.952 -0.0942 -0.4315  0.2466
 7604TIP3   OH249734   0.760   3.553   0.377 -0.1280 -0.3747 -0.3624
 7604TIP3    H149735   0.699   3.578   0.308 -0.4583  2.6005  0.8655
 7604TIP3    H249736   0.706   3.510   0.443 -0.8185  1.6019  0.3994
 7605TIP3   OH249737   1.363   3.051   0.565  0.1495  0.4316  0.0924
 7605TIP3    H149738   1.394   3.069   0.476 -2.9224  3.0011 -0.6418
 7605TIP3    H249739   1.399   3.122   0.618 -0.7858  0.8725  0.1539
 7606TIP3   OH249740   7.576   2.027   5.520  0.0775 -0.3010 -0.8205
 7606TIP3    H149741   7.506   2.083   5.487  0.0259  0.8765  1.1201
 7606TIP3    H249742   7.602   1.975   5.445 -0.6750  1.5106 -2.4315
 7607TIP3   OH249743   6.542   0.243   5.058 -0.3314 -0.2049  0.2586
 7607TIP3    H149744   6.535   0.186   4.981 -1.3103  0.2416  0.0057
 7607TIP3    H249745   6.636   0.250   5.074 -0.1873 -2.5088  0.7731
 7608TIP3   OH249746   7.954   4.501   1.664  0.2993  0.7934 -0.5311
 7608TIP3    H149747   7.861   4.490   1.644  0.3188  2.7700 -1.9830
 7608TIP3    H249748   7.988   4.411   1.670 -1.5476  0.0497 -0.6729
 7609TIP3   OH249749   0.011   6.831   5.416 -0.0870  1.4001  0.5989
 7609TIP3    H149750   8.500   6.754   5.385  1.7325 -0.1467  1.4974
 7609TIP3    H249751   8.506   6.852   5.500 -2.0928  2.8980 -0.6576
 7610TIP3   OH249752   2.453   5.466   6.687 -0.3633  0.1161  0.8549
 7610TIP3    H149753   2.373   5.452   6.638 -1.1443  2.6085  1.2506
 7610TIP3    H249754   2.436   5.428   6.773 -1.3137  0.9663  1.0643
 7611TIP3   OH249755   0.647   7.277   5.164  0.0960  0.0852 -0.0957
 7611TIP3    H149756   0.736   7.294   5.134 -0.0049 -0.0758 -0.5017
 7611TIP3    H249757   0.593   7.294   5.086 -0.1439 -0.6659 -0.0980
 7612TIP3   OH249758   8.225   0.854   0.482  0.1872 -0.3407  0.0915
 7612TIP3    H149759   8.195   0.924   0.541 -0.1087  0.6143 -1.1449
 7612TIP3    H249760   8.320   0.854   0.490  0.0660 -1.6172  2.0805
 7613TIP3   OH249761   4.421   2.536   0.049  0.1080  0.3900  0.0644
 7613TIP3    H149762   4.500   2.573   0.089  0.8546  0.1825 -1.1807
 7613TIP3    H249763   4.453   2.486   7.045 -1.2447  0.6506 -0.7157
 7614TIP3   OH249764   6.918   7.634   5.523 -0.6202 -0.1571 -0.6554
 7614TIP3    H149765   6.922   7.621   5.618  2.6355  0.5447 -0.5766
 7614TIP3    H249766   6.981   7.571   5.488  1.3094  2.2885 -1.8941
 7615TIP3   OH249767   6.477   1.143   0.442 -0.2122  0.6736 -0.1029
 7615TIP3    H149768   6.428   1.194   0.507  2.8097  2.6954  0.8190
 7615TIP3    H249769   6.502   1.207   0.375 -1.6884 -1.0097 -2.4431
 7616TIP3   OH249770   0.985   1.872   6.515  0.3375  0.5461  0.3735
 7616TIP3    H149771   0.925   1.856   6.442  0.0151 -2.6235  1.1689
 7616TIP3    H249772   1.069   1.888   6.473 -0.0776 -0.0018 -0.7268
 7617TIP3   OH249773   2.990   6.075   1.318  0.1043  0.6497 -0.3396
 7617TIP3    H149774   3.072   6.060   1.271  1.5611 -1.0992  2.4953
 7617TIP3    H249775   3.011   6.141   1.384 -1.4073  1.7626 -0.9010
 7618TIP3   OH249776   4.016   6.936   6.060  0.3099 -0.0023  0.6997
 7618TIP3    H149777   4.047   6.971   6.144  0.1173  0.2447  0.6667
 7618TIP3    H249778   3.959   6.863   6.085  1.6423 -1.0791  0.7484
 7619TIP3   OH249779   0.929   3.717   6.590  0.1826 -0.3202  0.0280
 7619TIP3    H149780   0.951   3.723   6.497 -1.2689 -0.3319 -0.3446
 7619TIP3    H249781   0.978   3.788   6.631  1.4603 -0.8066 -0.6076
 7620TIP3   OH249782   4.669   6.988   5.680  0.6312 -0.0292 -0.4993
 7620TIP3    H149783   4.744   6.933   5.702  0.8276 -0.1798 -1.4808
 7620TIP3    H249784   4.627   6.943   5.607 -0.5266 -0.0336  0.1576
 7621TIP3   OH249785   1.600   4.081   0.885  0.1453  0.7740 -0.1632
 7621TIP3    H149786   1.637   3.993   0.885  0.3522  0.8583 -0.0416
 7621TIP3    H249787   1.538   4.081   0.957 -0.4883  0.4702 -0.7072
 7622TIP3   OH249788   0.052   0.259   6.766 -0.0840 -0.7919 -0.3912
 7622TIP3    H149789   0.089   0.302   6.843 -2.5186  2.6280 -0.8898
 7622TIP3    H249790   8.497   0.237   6.791 -0.9293  0.3857 -2.1650
 7623TIP3   OH249791   7.088   6.515   0.437 -0.1867 -0.1448 -0.3174
 7623TIP3    H149792   7.153   6.446   0.427  1.2229  1.2177 -0.8940
 7623TIP3    H249793   7.012   6.484   0.388  0.4118 -1.2726 -0.5591
 7624TIP3   OH249794   5.213   4.943   1.921 -0.0451  0.1772 -0.0558
 7624TIP3    H149795   5.165   4.910   1.845 -3.6410  0.2782  1.9221
 7624TIP3    H249796   5.238   4.863   1.969  1.8377  0.1294 -1.0283
 7625TIP3   OH249797   4.098   5.371   6.033 -0.0222  0.0845 -0.1400
 7625TIP3    H149798   4.123   5.381   5.941  2.2335 -0.2747  0.3668
 7625TIP3    H249799   4.142   5.291   6.061  0.8825  1.1514  1.7033
 7626TIP3   OH249800   1.042   5.978   0.896  0.6197 -0.1356  0.2938
 7626TIP3    H149801   0.986   5.911   0.935  2.2064 -0.5369  2.0662
 7626TIP3    H249802   1.014   6.059   0.938  0.4670 -0.1089  0.1431
 7627TIP3   OH249803   0.211   6.741   6.270  0.5602 -0.3002  0.2007
 7627TIP3    H149804   0.224   6.756   6.177  0.9384  1.0677  0.4656
 7627TIP3    H249805   0.121   6.707   6.277  0.1151  0.7074 -0.5452
 7628TIP3   OH249806   8.348   0.125   6.846 -0.1437 -0.1322  0.1745
 7628TIP3    H149807   8.300   0.046   6.871  1.8888 -2.2634 -2.0545
 7628TIP3    H249808   8.283   0.181   6.804 -1.2616 -1.5719 -0.0925
 7629TIP3   OH249809   6.685   2.496   6.886  0.7569 -0.3002 -0.4215
 7629TIP3    H149810   6.596   2.473   6.859  0.2621  1.9536 -0.9170
 7629TIP3    H249811   6.736   2.494   6.805  1.1216 -1.3301 -0.1809
 7630TIP3   OH249812   2.749   1.360   5.661 -0.2232 -0.5876 -0.5923
 7630TIP3    H149813   2.763   1.278   5.614  0.4095 -1.5537  1.1708
 7630TIP3    H249814   2.826   1.413   5.642 -0.9943 -0.0454 -2.3630
 7631TIP3   OH249815   4.084   3.706   5.485  0.2733 -0.0227  0.5826
 7631TIP3    H149816   4.090   3.634   5.548 -1.5377  1.4955  2.6371
 7631TIP3    H249817   4.055   3.781   5.536  1.0933  1.9773 -1.6563
 7632TIP3   OH249818   8.019   5.159   2.084 -0.5174 -0.2840 -0.7042
 7632TIP3    H149819   8.093   5.105   2.057 -0.5106 -0.5022 -0.2553
 7632TIP3    H249820   7.968   5.102   2.142 -1.0031 -0.1148 -0.9584
 7633TIP3   OH249821   6.827   6.750   6.135 -0.3080  0.2871  0.4695
 7633TIP3    H149822   6.743   6.737   6.091 -0.5894 -1.0207  1.3256
 7633TIP3    H249823   6.812   6.827   6.191 -0.7449  0.4307  0.1644
 7634TIP3   OH249824   6.171   6.424   1.744 -0.0993 -0.1175 -0.2232
 7634TIP3    H149825   6.162   6.471   1.661  0.8205  2.2953  0.9437
 7634TIP3    H249826   6.085   6.435   1.787 -0.2792 -0.5810 -0.4586
 7635TIP3   OH249827   6.829   2.021   2.355 -0.3590  0.2722 -0.4213
 7635TIP3    H149828   6.775   1.955   2.312 -0.9149  0.2891  0.2226
 7635TIP3    H249829   6.888   2.052   2.287 -0.3961 -0.5634 -0.8503
 7636TIP3   OH249830   2.000   1.868   6.286 -0.2856 -0.7155 -0.0881
 7636TIP3    H149831   1.950   1.912   6.355  1.7249  0.9261  0.4395
 7636TIP3    H249832   2.086   1.851   6.326  0.0071 -2.3608 -1.3068
 7637TIP3   OH249833   8.497   0.950   0.875  0.2401 -0.3111 -0.1159
 7637TIP3    H149834   0.028   0.926   0.810 -1.1607 -2.6001 -0.8433
 7637TIP3    H249835   8.522   1.037   0.904  1.9096  0.1006 -2.4755
 7638TIP3   OH249836   8.332   7.246   0.736  0.2143  0.2658  0.0864
 7638TIP3    H149837   8.255   7.193   0.717 -0.1941  1.5682 -2.3164
 7638TIP3    H249838   8.302   7.337   0.726  2.1865  0.7970 -1.6734
 7639TIP3   OH249839   2.040   7.891   0.308  0.6232  0.2435  0.0861
 7639TIP3    H149840   2.058   7.811   0.357 -0.6315 -0.6299 -0.8362
 7639TIP3    H249841   1.952   7.879   0.273  1.1925  1.1304 -1.7933
 7640TIP3   OH249842   2.405   7.653   0.210  0.2982 -0.3089  0.7126
 7640TIP3    H149843   2.467   7.707   0.161 -1.2134 -0.0261 -1.0386
 7640TIP3    H249844   2.377   7.709   0.283  0.4052  0.4343  0.1960
 7641TIP3   OH249845   2.210   4.249   6.889 -0.2063  0.1734  0.1144
 7641TIP3    H149846   2.181   4.175   6.943  2.0695 -0.0366  1.1928
 7641TIP3    H249847   2.177   4.326   6.933 -0.5869 -0.1116  0.3336
 7642TIP3   OH249848   6.075   5.817   1.727 -0.3497 -0.2338 -0.4162
 7642TIP3    H149849   6.141   5.828   1.795 -1.2832 -0.3792  0.5504
 7642TIP3    H249850   6.119   5.768   1.657  0.5229 -0.4251  0.2557
 7643TIP3   OH249851   7.071   6.283   7.030 -0.4362 -0.0438 -0.1313
 7643TIP3    H149852   6.996   6.242   0.003 -1.3263  0.9434 -0.6612
 7643TIP3    H249853   7.077   6.238   6.946  1.3191 -1.9889  0.9541
 7644TIP3   OH249854   0.906   2.208   6.514  0.3957 -0.2128  0.4717
 7644TIP3    H149855   0.833   2.245   6.464  1.8475  1.3562 -0.6047
 7644TIP3    H249856   0.869   2.132   6.559 -1.7865  0.3140 -0.3331
 7645TIP3   OH249857   1.921   2.812   0.360 -0.3673 -0.2545  0.6844
 7645TIP3    H149858   1.847   2.851   0.406 -0.9600 -0.9264  0.3222
 7645TIP3    H249859   1.919   2.851   0.272 -0.0458  0.0290  0.8016
 7646TIP3   OH249860   7.835   6.852   0.371 -0.3468  0.0113  0.6973
 7646TIP3    H149861   7.860   6.899   0.291  0.5291 -0.7278  0.5201
 7646TIP3    H249862   7.891   6.889   0.439 -0.4186 -0.0256  0.7765
 7647TIP3   OH249863   1.048   3.356   0.023  0.0498 -0.5497  0.4142
 7647TIP3    H149864   1.009   3.406   7.022  0.7273  2.4598  1.9621
 7647TIP3    H249865   1.143   3.367   0.011  0.1785 -0.3684  1.5048
 7648TIP3   OH249866   1.200   8.475   6.625  0.4164  0.5754  0.6207
 7648TIP3    H149867   1.118   8.438   6.656  0.5553  0.8196  1.3023
 7648TIP3    H249868   1.267   8.413   6.654  0.4133 -0.0589 -0.6637
 7649TIP3   OH249869   6.014   4.675   6.949  0.2889  0.0811  0.3475
 7649TIP3    H149870   6.075   4.633   6.889 -0.2373 -0.9521  0.4972
 7649TIP3    H249871   6.032   4.768   6.942  1.7226 -0.1887  0.2258
 7650TIP3   OH249872   5.253   0.269   6.779  0.6182  0.1136 -0.1647
 7650TIP3    H149873   5.292   0.353   6.756  1.3979 -0.5652 -1.4712
 7650TIP3    H249874   5.174   0.291   6.827 -0.1240  1.6527 -1.9694
 7651TIP3   OH249875   0.347   0.244   0.160 -0.3955  1.3356 -0.9186
 7651TIP3    H149876   0.362   0.329   0.117 -0.3753  1.5706 -0.4505
 7651TIP3    H249877   0.408   0.244   0.234 -1.3435  1.4875 -0.1151
 7652TIP3   OH249878   4.145   5.791   1.554  0.0597 -0.0260  0.3292
 7652TIP3    H149879   4.145   5.819   1.646 -0.6923 -0.2585  0.4037
 7652TIP3    H249880   4.219   5.730   1.547  0.5614  0.5371  0.6045
 7653TIP3   OH249881   6.222   0.570   5.246  0.7281  0.6473  0.0697
 7653TIP3    H149882   6.277   0.622   5.187 -0.0046  0.1813 -1.0488
 7653TIP3    H249883   6.214   0.624   5.325  2.3649  0.9419  0.0743
 7654TIP3   OH249884   4.235   0.822   5.874  0.2993  0.6165 -0.0928
 7654TIP3    H149885   4.148   0.793   5.845  0.7383 -1.3571  0.4087
 7654TIP3    H249886   4.285   0.741   5.885  2.0990  1.6850  0.0080
 7655TIP3   OH249887   8.455   3.923   6.169  0.0196  0.6030  0.8882
 7655TIP3    H149888   8.452   4.009   6.210  0.5328  0.7514  0.6272
 7655TIP3    H249889   8.489   3.939   6.081 -0.7303  0.2428  0.5258
 7656TIP3   OH249890   8.204   5.296   6.390  0.3050 -0.0115 -0.2472
 7656TIP3    H149891   8.135   5.273   6.328 -0.3783  3.4770 -0.9587
 7656TIP3    H249892   8.164   5.284   6.476 -0.7470  0.6893 -0.6235
 7657TIP3   OH249893   6.021   8.436   6.900 -0.0007 -0.0365 -0.4619
 7657TIP3    H149894   6.010   8.522   6.859 -1.7280 -0.2721 -0.5605
 7657TIP3    H249895   6.105   8.442   6.946 -0.3324  1.8833 -0.0330
 7658TIP3   OH249896   6.934   1.030   1.759  0.0310 -0.3009  0.0003
 7658TIP3    H149897   6.846   1.014   1.726 -0.0687  2.1877 -1.2017
 7658TIP3    H249898   6.942   0.974   1.836 -2.1140 -1.5209 -0.5834
 7659TIP3   OH249899   5.980   5.712   5.113  0.1667  0.0616 -0.8240
 7659TIP3    H149900   5.901   5.693   5.163  0.4998 -2.1708 -1.0447
 7659TIP3    H249901   6.052   5.680   5.168  1.0585  2.7648 -0.2679
 7660TIP3   OH249902   7.747   6.643   0.145 -0.5469 -0.0611 -0.5859
 7660TIP3    H149903   7.833   6.615   0.114 -0.1318  0.4676  0.0802
 7660TIP3    H249904   7.723   6.716   0.089  0.2091  0.9028  0.3191
 7661TIP3   OH249905   4.829   3.955   0.361 -0.9279  0.0284 -0.5012
 7661TIP3    H149906   4.829   3.892   0.433 -3.1336  0.2331 -0.2661
 7661TIP3    H249907   4.810   4.039   0.403  1.8162  0.9226 -0.8342
 7662TIP3   OH249908   4.748   5.440   1.466  0.1392  0.0915  0.3068
 7662TIP3    H149909   4.787   5.356   1.489  1.0115  0.2497 -0.5077
 7662TIP3    H249910   4.813   5.505   1.495 -0.1099  0.4399  0.0957
 7663TIP3   OH249911   5.279   6.464   6.158  0.6184 -0.3079 -0.2326
 7663TIP3    H149912   5.244   6.551   6.176 -0.5104 -1.0068  1.2569
 7663TIP3    H249913   5.356   6.458   6.215  0.2363 -0.5358  0.2776
 7664TIP3   OH249914   2.517   4.528   6.893  0.1143  0.1824 -1.1622
 7664TIP3    H149915   2.578   4.511   6.821 -0.9320  0.3601 -2.1044
 7664TIP3    H249916   2.470   4.607   6.867  0.2597  0.7085  0.0903
 7665TIP3   OH249917   0.705   6.060   5.774  0.2143 -0.4715 -0.8246
 7665TIP3    H149918   0.709   5.978   5.725  0.2919 -0.0291 -1.5873
 7665TIP3    H249919   0.673   6.035   5.861 -0.1116 -1.2589 -1.1576
 7666TIP3   OH249920   0.341   1.558   0.974 -0.3827  0.5859 -0.0282
 7666TIP3    H149921   0.422   1.592   1.013 -1.0121  0.8526  1.0773
 7666TIP3    H249922   0.319   1.482   1.028  0.1659 -0.6866 -1.5218
 7667TIP3   OH249923   6.650   6.192   0.349 -0.3489  0.5917  0.0360
 7667TIP3    H149924   6.629   6.109   0.306  1.0998 -0.8663  1.9568
 7667TIP3    H249925   6.580   6.203   0.413 -0.0218  0.3351  0.4406
 7668TIP3   OH249926   6.746   7.804   6.636  0.4657 -0.2076 -0.2649
 7668TIP3    H149927   6.717   7.796   6.726  2.1335  1.3963  0.4749
 7668TIP3    H249928   6.675   7.765   6.584  0.6727 -3.7740  1.7990
 7669TIP3   OH249929   3.928   6.434   6.041  0.5865 -0.2385 -0.1412
 7669TIP3    H149930   3.962   6.515   6.003  2.2993 -0.8066  0.1267
 7669TIP3    H249931   3.884   6.463   6.121 -0.1113  0.5690 -0.7846
 7670TIP3   OH249932   2.048   1.467   0.576  0.2222  0.5631 -0.4394
 7670TIP3    H149933   2.003   1.479   0.492 -0.4899  1.5614  0.0667
 7670TIP3    H249934   2.039   1.373   0.594  0.3687  0.3372 -1.4578
 7671TIP3   OH249935   7.998   3.922   1.971 -0.2214 -0.0329  0.4951
 7671TIP3    H149936   8.065   3.991   1.973 -0.2549  0.1514 -1.7964
 7671TIP3    H249937   8.010   3.875   2.053  1.1591  1.4414  1.1996
 7672TIP3   OH249938   4.748   3.349   0.133  0.1219  0.2873  0.1781
 7672TIP3    H149939   4.824   3.360   0.190 -0.0508  2.0694  0.0981
 7672TIP3    H249940   4.775   3.386   0.049 -0.4442 -0.1536 -0.2134
 7673TIP3   OH249941   3.280   5.366   1.682  0.3101  0.4978  0.3100
 7673TIP3    H149942   3.227   5.440   1.652  0.0158 -1.1307 -3.8590
 7673TIP3    H249943   3.220   5.312   1.733 -0.2133  1.6919  1.0106
 7674TIP3   OH249944   3.746   6.001   6.224  0.2887  0.1533 -0.0160
 7674TIP3    H149945   3.823   5.987   6.279  1.6732  2.2612 -1.2851
 7674TIP3    H249946   3.721   5.913   6.195  0.7209 -0.8115  2.3117
 7675TIP3   OH249947   7.073   1.105   6.783  0.1809  0.2317 -0.3413
 7675TIP3    H149948   7.077   1.198   6.763 -1.9994  0.1108 -1.7123
 7675TIP3    H249949   7.109   1.098   6.871  0.9382  2.2716 -0.4339
 7676TIP3   OH249950   7.660   1.416   6.100 -0.2719 -0.0913 -0.9856
 7676TIP3    H149951   7.626   1.406   6.189 -0.5920 -3.3007 -1.3378
 7676TIP3    H249952   7.754   1.402   6.108 -0.0867  1.0236 -1.0186
 7677TIP3   OH249953   2.563   1.144   0.846  0.1810  0.3047  0.0634
 7677TIP3    H149954   2.489   1.201   0.865 -0.8067 -0.4721 -1.2478
 7677TIP3    H249955   2.527   1.076   0.789  2.2419  0.8066 -2.0088
 7678TIP3   OH249956   0.591   3.875   1.672 -0.2164 -0.4225 -0.2917
 7678TIP3    H149957   0.502   3.878   1.637  0.3955 -0.7440 -2.0126
 7678TIP3    H249958   0.605   3.961   1.711 -1.0171 -0.0838 -0.7348
 7679TIP3   OH249959   3.812   5.500   1.182 -0.5936  0.0281 -0.3995
 7679TIP3    H149960   3.901   5.535   1.184 -1.4248  2.2967  0.3828
 7679TIP3    H249961   3.821   5.408   1.206  1.3755  0.6165  1.3283
 7680TIP3   OH249962   3.964   7.167   1.965  0.1057  0.6299 -0.0940
 7680TIP3    H149963   3.909   7.214   1.902  0.0242 -1.2234 -1.4761
 7680TIP3    H249964   3.930   7.078   1.965  2.2128 -0.2332  0.0500
 7681TIP3   OH249965   5.703   4.023   6.616 -0.5069 -0.3512 -0.5141
 7681TIP3    H149966   5.661   4.085   6.676 -1.4287 -0.5982 -0.8776
 7681TIP3    H249967   5.632   3.964   6.590  0.2718 -1.3120 -0.4874
 7682TIP3   OH249968   8.274   4.730   6.539  0.8747  0.3271  0.1583
 7682TIP3    H149969   8.244   4.686   6.619  0.9540  1.4343  0.8175
 7682TIP3    H249970   8.345   4.675   6.507  0.8007 -0.1650  0.8112
 7683TIP3   OH249971   0.806   7.902   5.654 -0.1521  0.3645  0.2191
 7683TIP3    H149972   0.828   7.984   5.698 -2.9576  1.0691  0.5431
 7683TIP3    H249973   0.778   7.929   5.566  0.7067 -0.4799 -0.3286
 7684TIP3   OH249974   5.042   7.803   6.436  0.2663  0.5708 -0.0344
 7684TIP3    H149975   5.062   7.732   6.375  1.2128  1.1387 -0.4034
 7684TIP3    H249976   5.113   7.866   6.424  0.2848  0.8603  1.4115
 7685TIP3   OH249977   4.900   2.675   0.952 -0.0997  0.0575  0.1034
 7685TIP3    H149978   4.810   2.653   0.930  0.0061 -0.0633 -0.2177
 7685TIP3    H249979   4.930   2.602   1.006 -0.1088 -0.0398 -0.0214
 7686TIP3   OH249980   6.496   1.440   1.137  0.1387  0.2608 -0.3325
 7686TIP3    H149981   6.499   1.513   1.199  2.1239 -0.3733  0.4135
 7686TIP3    H249982   6.516   1.479   1.052 -2.2743  1.0872 -0.5795
 7687TIP3   OH249983   4.267   5.973   6.863 -0.3311  0.3553 -0.5332
 7687TIP3    H149984   4.205   5.945   6.931 -0.0729 -0.0948 -0.4762
 7687TIP3    H249985   4.287   6.064   6.885  1.3542 -0.3728  1.2450
 7688TIP3   OH249986   3.271   0.264   0.678 -0.4973 -0.5877 -0.2421
 7688TIP3    H149987   3.270   0.325   0.604  1.4726 -0.6606 -0.3809
 7688TIP3    H249988   3.294   0.179   0.639  0.9966 -0.5447  0.4694
 7689TIP3   OH249989   5.694   0.549   0.889  0.4612  0.5222  0.2544
 7689TIP3    H149990   5.764   0.550   0.823  0.3687  1.4060  0.1577
 7689TIP3    H249991   5.687   0.640   0.917  1.1821  0.0224  2.2292
 7690TIP3   OH249992   7.609   7.587   6.401  0.1827  0.2813 -0.1553
 7690TIP3    H149993   7.629   7.678   6.378  0.5648 -0.0928 -1.4001
 7690TIP3    H249994   7.695   7.546   6.410  0.0074 -0.0821 -0.1341
 7691TIP3   OH249995   6.748   5.169   0.798  0.5010 -0.5148 -0.2436
 7691TIP3    H149996   6.712   5.081   0.798 -1.3675  0.2002 -1.0275
 7691TIP3    H249997   6.762   5.189   0.890 -0.5188 -1.0901  0.0548
 7692TIP3   OH249998   8.021   2.868   0.382 -0.1336  0.0367  0.5597
 7692TIP3    H149999   8.067   2.951   0.375  0.1653 -0.0979  0.8740
 7692TIP3    H250000   7.981   2.855   0.296 -0.9356  0.9343  0.7788
 7693TIP3   OH250001   3.819   6.499   6.298 -0.0892  0.4007 -0.2532
 7693TIP3    H150002   3.792   6.408   6.312  1.4923 -0.2389 -1.0782
 7693TIP3    H250003   3.800   6.543   6.381 -0.0514 -0.8999  0.4696
 7694TIP3   OH250004   5.359   8.449   1.025 -0.1075 -0.3831 -0.6893
 7694TIP3    H150005   5.424   8.466   1.093 -0.1727 -0.9320 -0.4866
 7694TIP3    H250006   5.380   8.512   0.956  0.1573 -0.0359 -0.3002
 7695TIP3   OH250007   8.166   4.078   1.248  0.6226 -0.3623 -0.1873
 7695TIP3    H150008   8.234   4.045   1.189  0.1616 -2.1173  0.2218
 7695TIP3    H250009   8.170   4.020   1.324 -0.2870  0.4986  0.5383
 7696TIP3   OH250010   4.294   0.875   6.165  0.5114  0.3554  0.2508
 7696TIP3    H150011   4.279   0.849   6.074  1.1553 -0.0774  0.2587
 7696TIP3    H250012   4.308   0.969   6.162 -1.0609  0.6024  0.1114
 7697TIP3   OH250013   2.538   2.252   5.825 -0.3845  0.3962 -0.1600
 7697TIP3    H150014   2.608   2.203   5.868 -1.3709 -2.0353 -1.1259
 7697TIP3    H250015   2.563   2.254   5.733 -1.0253  0.5036 -0.3369
 7698TIP3   OH250016   2.570   7.939   5.865 -0.5838  0.3612 -0.8902
 7698TIP3    H150017   2.650   7.947   5.813 -0.0117 -0.3190 -0.1353
 7698TIP3    H250018   2.579   8.007   5.932 -0.8230  0.5345 -1.0316
 7699TIP3   OH250019   4.283   5.300   1.320 -0.2103  0.5291  0.0807
 7699TIP3    H150020   4.351   5.299   1.388 -1.1761  1.3247  1.1153
 7699TIP3    H250021   4.282   5.391   1.290 -1.2693  0.6990  0.5832
 7700TIP3   OH250022   2.904   3.630   5.491 -0.1938 -0.1815 -0.1847
 7700TIP3    H150023   2.933   3.550   5.536  1.8197  0.4867 -0.1632
 7700TIP3    H250024   2.976   3.692   5.505 -1.3352  1.3685 -0.9104
 7701TIP3   OH250025   6.482   5.412   5.704 -0.2930 -0.0966 -0.5247
 7701TIP3    H150026   6.423   5.445   5.636 -0.4861 -0.5228 -0.5710
 7701TIP3    H250027   6.423   5.375   5.770 -0.2587  2.6430  1.1712
 7702TIP3   OH250028   2.339   3.046   0.238 -0.3288  0.5939 -0.3231
 7702TIP3    H150029   2.409   3.107   0.213 -1.9675  2.9273  0.4105
 7702TIP3    H250030   2.280   3.045   0.163  0.0836 -0.8348 -0.6652
 7703TIP3   OH250031   6.284   5.919   0.069  0.1983 -0.3721  0.1727
 7703TIP3    H150032   6.256   5.959   7.057 -2.2376  0.2895  1.2086
 7703TIP3    H250033   6.230   5.840   0.076  0.7997 -0.7240  0.8669
 7704TIP3   OH250034   2.254   1.248   4.967  0.3709  0.2495  0.3964
 7704TIP3    H150035   2.199   1.267   5.043  2.1442 -1.3059  2.1975
 7704TIP3    H250036   2.234   1.158   4.943  0.1123  0.5974 -0.7724
 7705TIP3   OH250037   7.387   6.569   1.019  0.6475  0.3401 -0.0312
 7705TIP3    H150038   7.475   6.562   0.981  0.8327 -2.8409  0.7244
 7705TIP3    H250039   7.402   6.596   1.109  0.9069 -0.4109  0.1599
 7706TIP3   OH250040   5.911   1.026   0.182  0.5176  0.6475 -0.3174
 7706TIP3    H150041   5.828   1.075   0.178  0.4597  0.4944 -1.0217
 7706TIP3    H250042   5.884   0.936   0.198  0.5740  0.6664 -0.1100
 7707TIP3   OH250043   8.125   2.152   5.707 -0.0457 -0.4731 -0.0041
 7707TIP3    H150044   8.128   2.119   5.797  0.8232  1.3226  0.6770
 7707TIP3    H250045   8.062   2.096   5.663 -1.4184 -0.6411  2.0504
 7708TIP3   OH250046   3.550   4.820   5.121 -0.1967 -0.5014 -0.0306
 7708TIP3    H150047   3.591   4.884   5.180 -0.9289 -0.3099  0.2803
 7708TIP3    H250048   3.619   4.798   5.058 -0.4536  2.0061 -1.3109
 7709TIP3   OH250049   0.914   7.434   5.348 -0.3559  0.3310  0.1804
 7709TIP3    H150050   1.004   7.420   5.377 -0.1909 -0.9343 -0.8333
 7709TIP3    H250051   0.921   7.491   5.272 -0.5359  1.3235  0.9010
 7710TIP3   OH250052   7.098   5.793   0.004 -0.4970 -0.3299  0.6583
 7710TIP3    H150053   7.118   5.744   0.083 -0.6368 -0.8709  0.3671
 7710TIP3    H250054   7.138   5.878   0.017  1.4817 -1.1615  0.3466
 7711TIP3   OH250055   4.757   6.851   6.128 -0.6399 -0.3389 -0.5643
 7711TIP3    H150056   4.801   6.819   6.206  0.0624  1.1414 -0.3072
 7711TIP3    H250057   4.762   6.947   6.136 -0.4732 -0.1558 -2.4517
 7712TIP3   OH250058   4.668   6.192   0.756  0.3438 -0.0010 -0.4605
 7712TIP3    H150059   4.693   6.102   0.734  2.6434  0.4756 -0.0997
 7712TIP3    H250060   4.575   6.187   0.776  0.7438 -2.6332  1.1819
 7713TIP3   OH250061   2.736   7.864   6.986  0.1506 -0.1575  0.3864
 7713TIP3    H150062   2.709   7.775   7.008 -0.1480  0.2173  1.5982
 7713TIP3    H250063   2.730   7.912   7.068 -1.2462  1.3800 -0.5491
 7714TIP3   OH250064   2.694   3.979   0.468 -0.4543  0.5765  0.3995
 7714TIP3    H150065   2.659   4.030   0.541 -0.1249  0.0060  0.9650
 7714TIP3    H250066   2.752   4.040   0.422  2.8695 -0.2027  3.1810
 7715TIP3   OH250067   0.033   5.654   1.332 -0.1702  0.3824 -0.1968
 7715TIP3    H150068   0.089   5.644   1.255  0.0237  0.6370 -0.0913
 7715TIP3    H250069   8.489   5.604   1.312  0.2918 -0.3779 -0.1583
 7716TIP3   OH250070   5.673   8.037   6.485 -0.7087 -0.0609  0.1527
 7716TIP3    H150071   5.743   8.085   6.530  0.3112  0.9534 -2.3055
 7716TIP3    H250072   5.705   7.948   6.477 -0.9600 -0.2826  1.4778
 7717TIP3   OH250073   4.426   0.699   6.650 -0.1014  0.1379  0.2867
 7717TIP3    H150074   4.459   0.680   6.738  1.1208  4.3373  0.9513
 7717TIP3    H250075   4.339   0.737   6.664 -1.3451 -2.1419 -0.7033
 7718TIP3   OH250076   3.043   1.896   5.425 -0.1474  0.3355  0.7372
 7718TIP3    H150077   2.974   1.931   5.368  0.3659 -0.3148 -0.3341
 7718TIP3    H250078   3.053   1.805   5.397 -0.1169 -0.1080  2.1334
 7719TIP3   OH250079   7.562   3.583   0.419  0.1041 -0.2810  0.4309
 7719TIP3    H150080   7.652   3.571   0.448 -0.1748 -0.2526  1.3363
 7719TIP3    H250081   7.567   3.582   0.324  1.5216  2.9251  0.3480
 7720TIP3   OH250082   2.693   6.579   1.155 -0.0097  0.0175 -0.1703
 7720TIP3    H150083   2.670   6.544   1.241  0.0198 -0.8022 -0.4833
 7720TIP3    H250084   2.700   6.502   1.099  0.5867  0.4915 -0.7653
 7721TIP3   OH250085   1.484   8.366   6.285 -0.2923  0.0903  0.1562
 7721TIP3    H150086   1.538   8.380   6.363 -0.7353  1.7377  0.1988
 7721TIP3    H250087   1.536   8.309   6.230  0.6104 -0.0067  1.0825
 7722TIP3   OH250088   2.370   5.138   6.842 -0.0121  0.1900 -0.0200
 7722TIP3    H150089   2.451   5.146   6.893  0.2367  2.9541 -0.6979
 7722TIP3    H250090   2.303   5.115   6.907  1.1484 -1.5134  0.6504
 7723TIP3   OH250091   7.958   3.082   6.699 -0.1470  0.7798  0.2820
 7723TIP3    H150092   7.863   3.079   6.684 -0.0803 -0.7771  0.0432
 7723TIP3    H250093   7.988   3.155   6.644 -1.0912  0.7004 -0.3701
 7724TIP3   OH250094   0.691   1.570   6.198  0.1206 -0.2016 -0.2941
 7724TIP3    H150095   0.606   1.609   6.182 -0.3344 -0.9668  0.2064
 7724TIP3    H250096   0.688   1.486   6.151 -0.3813 -1.4271  1.7928
 7725TIP3   OH250097   0.016   0.110   6.031 -0.0122  0.0006 -0.0089
 7725TIP3    H150098   0.098   0.142   5.994  0.1797  0.4326  0.7740
 7725TIP3    H250099   8.486   0.174   6.002 -0.4998 -1.4226 -2.3902
 7726TIP3   OH250100   0.172   2.604   1.361 -0.0370 -0.6710 -0.0859
 7726TIP3    H150101   0.081   2.577   1.350  0.7080 -2.7726 -1.8473
 7726TIP3    H250102   0.214   2.530   1.405  1.0452 -0.1759 -0.2507
 7727TIP3   OH250103   1.314   5.377   1.572  0.3033 -0.7747  0.0154
 7727TIP3    H150104   1.351   5.289   1.568  1.4195 -0.3951  1.2141
 7727TIP3    H250105   1.360   5.419   1.645 -2.1802 -0.0868  1.2937
 7728TIP3   OH250106   3.982   6.835   0.563 -0.1678 -0.2464  0.3631
 7728TIP3    H150107   3.969   6.921   0.604  0.2378 -0.9390  2.0207
 7728TIP3    H250108   4.066   6.805   0.598 -0.6787 -1.6558  0.4190
 7729TIP3   OH250109   1.351   1.686   1.506 -0.0657  0.1524  0.6247
 7729TIP3    H150110   1.403   1.683   1.426  0.0783 -0.8294  0.7398
 7729TIP3    H250111   1.274   1.738   1.483  0.3414  0.5210  0.0722
 7730TIP3   OH250112   4.700   7.416   6.278 -0.7294 -0.4601 -0.3774
 7730TIP3    H150113   4.610   7.382   6.282 -0.9847  0.3088  1.2560
 7730TIP3    H250114   4.717   7.426   6.184 -2.4836 -0.3107 -0.7293
 7731TIP3   OH250115   7.249   1.265   5.565 -0.1006 -0.3368  0.5353
 7731TIP3    H150116   7.190   1.243   5.493 -0.5962  0.2034  0.7589
 7731TIP3    H250117   7.200   1.242   5.644 -0.0094  0.0993  0.7251
 7732TIP3   OH250118   7.525   1.134   0.840  0.1300  0.6776 -0.1532
 7732TIP3    H150119   7.543   1.198   0.771 -0.0212  1.0949  0.1935
 7732TIP3    H250120   7.518   1.050   0.793 -1.8376  1.2195 -0.9190
 7733TIP3   OH250121   1.575   5.935   6.814  0.1659  0.4235  0.0676
 7733TIP3    H150122   1.480   5.938   6.818  0.1088 -0.3034 -0.4968
 7733TIP3    H250123   1.595   5.849   6.777  1.0579  0.3255  0.7313
 7734TIP3   OH250124   1.435   3.132   6.484 -0.4433  0.0199  0.4642
 7734TIP3    H150125   1.461   3.158   6.573 -1.2721 -0.5000  0.8747
 7734TIP3    H250126   1.507   3.161   6.428  0.4773 -0.3882  1.4142
 7735TIP3   OH250127   5.813   2.624   0.599 -0.1961 -0.2691 -0.3601
 7735TIP3    H150128   5.785   2.548   0.548 -0.8216 -0.4070  0.1896
 7735TIP3    H250129   5.854   2.588   0.677 -3.0547 -0.1035  1.3510
 7736TIP3   OH250130   7.083   6.967   6.848 -0.2740 -0.1082  0.1068
 7736TIP3    H150131   7.140   6.903   6.890  0.6604  0.0653 -0.8614
 7736TIP3    H250132   7.106   7.050   6.890  0.0010 -0.0802 -0.0973
 7737TIP3   OH250133   5.003   1.397   0.217 -0.0191 -0.1754  0.0123
 7737TIP3    H150134   4.987   1.354   0.301  0.7176 -0.5064 -0.0104
 7737TIP3    H250135   4.916   1.403   0.177 -0.4657  0.4770  1.0180
 7738TIP3   OH250136   5.398   3.895   5.986 -0.3833  0.1130  0.1595
 7738TIP3    H150137   5.403   3.837   6.061  0.5148  0.7720  0.6176
 7738TIP3    H250138   5.482   3.940   5.984  0.6247 -1.6221 -2.6547
 7739TIP3   OH250139   0.776   2.334   6.805  0.6281 -0.2038 -0.5153
 7739TIP3    H150140   0.712   2.263   6.802  0.4843 -0.1324  0.6364
 7739TIP3    H250141   0.860   2.290   6.815  0.5170 -0.2255  0.4437
 7740TIP3   OH250142   2.058   4.164   5.153  0.0715  0.4827  0.8003
 7740TIP3    H150143   2.067   4.198   5.064  1.8928  1.0654  1.1620
 7740TIP3    H250144   2.045   4.242   5.206 -0.3672  0.1934  1.1171
 7741TIP3   OH250145   4.685   1.595   0.300  1.1775 -0.1763 -0.0127
 7741TIP3    H150146   4.643   1.629   0.221  0.6963  1.7615  1.0055
 7741TIP3    H250147   4.736   1.669   0.334 -0.5862 -0.0941  2.7932
 7742TIP3   OH250148   4.597   5.013   6.133 -0.1146  0.3981  0.2167
 7742TIP3    H150149   4.564   4.931   6.097 -1.3880 -0.5755  3.2789
 7742TIP3    H250150   4.579   5.078   6.064  0.0582 -1.6526 -1.8966
 7743TIP3   OH250151   1.787   4.159   1.254 -0.2546  0.5132  0.1320
 7743TIP3    H150152   1.854   4.181   1.318  0.8029  0.6103 -0.9860
 7743TIP3    H250153   1.789   4.232   1.191  2.4680 -1.9251 -2.9818
 7744TIP3   OH250154   2.776   5.053   0.507 -0.2474  0.2470  0.1647
 7744TIP3    H150155   2.773   5.018   0.596 -1.8480 -1.2241 -0.4354
 7744TIP3    H250156   2.744   5.143   0.516 -0.8246 -0.0296  1.0011
 7745TIP3   OH250157   7.625   3.080   6.864 -0.1943 -0.2608  0.2785
 7745TIP3    H150158   7.657   3.093   6.775  1.4390 -1.1604  0.7092
 7745TIP3    H250159   7.542   3.128   6.866  0.8377  1.7391 -1.0411
 7746TIP3   OH250160   2.712   3.350   5.647 -0.2692  0.0409  0.4840
 7746TIP3    H150161   2.787   3.363   5.705  0.0420  1.8476 -0.2685
 7746TIP3    H250162   2.646   3.411   5.680 -0.3918  0.4720 -0.5233
 7747TIP3   OH250163   5.121   8.367   4.844  0.0787 -0.7570  0.5374
 7747TIP3    H150164   5.083   8.381   4.931 -0.1154  0.5818  0.2629
 7747TIP3    H250165   5.159   8.280   4.848  0.3782 -0.5820  2.0896
 7748TIP3   OH250166   8.066   2.790   5.469 -0.4222 -0.2546 -0.4538
 7748TIP3    H150167   8.035   2.880   5.483  0.0027 -0.0410 -0.8386
 7748TIP3    H250168   7.988   2.742   5.441 -0.8248 -0.1958  0.5491
 7749TIP3   OH250169   3.018   7.434   6.386  0.6243  0.5764 -0.4791
 7749TIP3    H150170   3.019   7.514   6.334 -2.1505 -0.1399 -1.8528
 7749TIP3    H250171   2.928   7.429   6.419  0.6391 -2.0650 -0.6625
 7750TIP3   OH250172   6.055   7.133   0.345  0.0063 -0.2071 -0.2983
 7750TIP3    H150173   6.143   7.153   0.376 -0.8321  2.5803  0.6021
 7750TIP3    H250174   6.036   7.200   0.280 -0.6636 -2.1699 -2.2811
 7751TIP3   OH250175   8.364   0.406   0.848  0.3613  0.3721 -0.3599
 7751TIP3    H150176   8.275   0.426   0.879 -0.3198 -3.2403  0.4942
 7751TIP3    H250177   8.403   0.357   0.920  2.1725 -0.2226 -1.6929
 7752TIP3   OH250178   6.445   4.535   5.709  0.4606  0.0561 -0.1760
 7752TIP3    H150179   6.526   4.489   5.733  0.3512  0.1885  0.4569
 7752TIP3    H250180   6.421   4.585   5.787 -1.2473 -1.4152  0.2955
 7753TIP3   OH250181   1.029   5.118   0.626 -0.0550  0.4775 -0.2134
 7753TIP3    H150182   0.983   5.173   0.690  0.3937  1.8973 -1.0746
 7753TIP3    H250183   0.965   5.103   0.557 -0.5140 -0.9931  0.5025
 7754TIP3   OH250184   0.969   0.828   1.677 -0.1850  0.4186  0.1166
 7754TIP3    H150185   1.035   0.810   1.745 -0.4842 -2.4976 -0.2273
 7754TIP3    H250186   0.890   0.785   1.709 -0.6112 -0.1418 -1.5745
 7755TIP3   OH250187   5.290   2.055   6.553 -0.0297 -0.1498  0.8784
 7755TIP3    H150188   5.203   2.038   6.518  0.1477 -0.6977  0.7021
 7755TIP3    H250189   5.290   2.149   6.573 -0.2815  0.0757 -0.1656
 7756TIP3   OH250190   8.460   0.943   5.712  0.1645 -0.0875  0.2827
 7756TIP3    H150191   8.405   0.865   5.703 -0.4581  0.5522 -2.5590
 7756TIP3    H250192   8.533   0.928   5.652  0.1621  1.3543 -0.1252
 7757TIP3   OH250193   5.366   6.357   0.329 -0.3358  0.3114 -0.1053
 7757TIP3    H150194   5.425   6.410   0.274  0.8267 -0.2905  0.5173
 7757TIP3    H250195   5.293   6.336   0.271  0.9711 -0.5086 -1.5320
 7758TIP3   OH250196   4.034   5.550   6.629  0.2891 -0.0996 -0.5801
 7758TIP3    H150197   3.952   5.501   6.635 -0.4672  1.2050  0.1642
 7758TIP3    H250198   4.039   5.575   6.537 -0.3717  0.1475 -0.5598
 7759TIP3   OH250199   2.776   3.954   5.884  0.5449  0.2659  0.2018
 7759TIP3    H150200   2.818   3.902   5.953  2.8150 -0.2896 -1.4939
 7759TIP3    H250201   2.813   4.042   5.894  1.9484 -0.1374 -1.0684
 7760TIP3   OH250202   8.413   4.501   5.541 -0.2737 -0.3032 -1.0460
 7760TIP3    H150203   8.410   4.596   5.551  0.4901 -0.1341 -2.1655
 7760TIP3    H250204   8.345   4.468   5.599 -1.1692  0.9850 -1.3241
 7761TIP3   OH250205   8.504   5.862   6.855  0.5042 -0.4646  0.2958
 7761TIP3    H150206   0.007   5.816   6.930  0.6118  0.2539  0.6875
 7761TIP3    H250207   8.526   5.954   6.869  0.9902 -0.3835 -0.9066
 7762TIP3   OH250208   5.804   5.614   5.927 -0.1105 -0.1278 -0.8587
 7762TIP3    H150209   5.875   5.650   5.873  0.0013  2.1853  0.6662
 7762TIP3    H250210   5.767   5.543   5.875  0.5308  1.4148 -3.6023
 7763TIP3   OH250211   1.380   2.896   1.129 -0.0617 -0.4301 -0.2786
 7763TIP3    H150212   1.435   2.837   1.181 -3.6245 -1.0096  3.3466
 7763TIP3    H250213   1.394   2.982   1.168 -2.0493 -0.7054  1.2167
 7764TIP3   OH250214   0.629   5.716   6.351  0.3802 -0.8466 -0.0284
 7764TIP3    H150215   0.547   5.756   6.377  0.1936 -1.3308  0.1409
 7764TIP3    H250216   0.696   5.765   6.398  0.1736 -0.5718 -0.0215
 7765TIP3   OH250217   2.998   0.481   0.761 -0.2338 -0.5137  0.1298
 7765TIP3    H150218   3.065   0.467   0.694  0.8579  0.6123  0.9259
 7765TIP3    H250219   2.921   0.510   0.712  0.0445 -1.2251 -0.7590
 7766TIP3   OH250220   3.136   1.672   1.215 -0.4425 -0.2067  0.0937
 7766TIP3    H150221   3.141   1.606   1.284 -0.8849 -0.2756  0.0628
 7766TIP3    H250222   3.123   1.755   1.261 -0.7652 -0.2563  0.0957
 7767TIP3   OH250223   3.428   2.048   0.931 -0.2029 -0.1631  0.2742
 7767TIP3    H150224   3.379   2.000   0.997 -1.0608  0.9576  0.4881
 7767TIP3    H250225   3.384   2.133   0.925  0.7591  0.3012 -0.6742
 7768TIP3   OH250226   4.643   7.110   6.862  0.0264  0.4800  0.3050
 7768TIP3    H150227   4.582   7.180   6.884 -0.7099 -0.1905  0.4365
 7768TIP3    H250228   4.661   7.067   6.945  1.3034  1.1485  0.4005
 7769TIP3   OH250229   6.616   0.062   5.300  0.0811 -0.2582  0.2610
 7769TIP3    H150230   6.586   8.529   5.240 -1.9175  1.2063 -0.4933
 7769TIP3    H250231   6.680   0.017   5.357 -0.6581 -2.5630 -0.6089
 7770TIP3   OH250232   2.954   2.829   5.309 -0.2692  0.2780 -0.0029
 7770TIP3    H150233   2.929   2.775   5.234  0.8863  1.9152 -1.6300
 7770TIP3    H250234   2.985   2.766   5.374 -2.4539 -1.2843 -0.3453
 7771TIP3   OH250235   2.436   4.161   0.107  0.2845  0.0678  0.1788
 7771TIP3    H150236   2.431   4.257   0.098 -1.7460  0.1295  1.3411
 7771TIP3    H250237   2.416   4.145   0.199 -0.1663 -1.5257 -0.1725
 7772TIP3   OH250238   7.116   6.341   6.195 -0.5312 -0.2318  1.1447
 7772TIP3    H150239   7.084   6.431   6.194 -1.1197 -0.4389  1.0999
 7772TIP3    H250240   7.101   6.309   6.107  1.3858  0.2037  0.6180
 7773TIP3   OH250241   5.991   6.516   0.195  0.0026 -0.0226 -0.3698
 7773TIP3    H150242   6.048   6.533   0.121  2.1460  0.3335  1.2576
 7773TIP3    H250243   6.026   6.436   0.234 -0.8165  0.0300  0.5239
 7774TIP3   OH250244   0.002   2.121   1.126 -0.3390  0.1206  0.3072
 7774TIP3    H150245   8.473   2.091   1.061 -1.1951 -1.3013  1.7228
 7774TIP3    H250246   0.087   2.105   1.086 -0.8304 -1.7235 -0.0915
 7775TIP3   OH250247   5.157   5.574   1.096  0.2360 -0.0648  0.1527
 7775TIP3    H150248   5.079   5.534   1.058  0.0264 -0.0985  0.6113
 7775TIP3    H250249   5.224   5.505   1.093  0.0161 -0.2990  0.4916
 7776TIP3   OH250250   4.449   7.456   4.882 -0.3279 -0.0199  0.2072
 7776TIP3    H150251   4.388   7.388   4.912  0.5699 -0.8901  0.1249
 7776TIP3    H250252   4.531   7.438   4.929 -0.2306  1.3756  0.6245
 7777TIP3   OH250253   2.971   1.223   5.888  0.2050  0.3873 -0.1436
 7777TIP3    H150254   2.915   1.230   5.811 -0.8142 -0.0412  0.5425
 7777TIP3    H250255   2.935   1.286   5.950 -0.7639 -1.2376  1.0333
 7778TIP3   OH250256   5.856   0.619   6.915 -0.0637  0.4039 -0.0844
 7778TIP3    H150257   5.886   0.595   6.827  0.5477  1.5551 -0.2032
 7778TIP3    H250258   5.816   0.705   6.904  0.3753  0.7360  0.8259
 7779TIP3   OH250259   6.364   2.885   5.652  0.6001 -0.6395 -0.3652
 7779TIP3    H150260   6.351   2.870   5.559 -0.6366  0.5264 -0.4041
 7779TIP3    H250261   6.282   2.858   5.693 -0.3534  2.3737 -0.0707
 7780TIP3   OH250262   5.323   8.105   0.188 -0.6571 -0.0801 -0.7370
 7780TIP3    H150263   5.364   8.043   0.248 -2.1069 -0.7693 -0.4148
 7780TIP3    H250264   5.393   8.168   0.167 -0.5415  1.3709  3.1987
 7781TIP3   OH250265   2.085   6.229   0.169 -0.0687  0.7480 -0.7889
 7781TIP3    H150266   2.153   6.170   0.134 -0.0256  0.2940  0.0432
 7781TIP3    H250267   2.009   6.213   0.114  0.4024  1.0550 -1.5545
 7782TIP3   OH250268   5.280   6.086   0.809 -0.4651 -0.5222 -0.4363
 7782TIP3    H150269   5.319   6.046   0.731 -0.1225 -0.7451 -0.1571
 7782TIP3    H250270   5.301   6.025   0.880  0.7609  0.5156  0.1408
 7783TIP3   OH250271   8.456   0.801   6.470 -0.0171 -0.1520 -0.0264
 7783TIP3    H150272   8.522   0.733   6.479  1.6727  1.4853  0.7819
 7783TIP3    H250273   8.506   0.880   6.446 -2.0839  0.4019 -3.1898
 7784TIP3   OH250274   0.498   5.396   6.588 -0.3598  0.2301 -0.1235
 7784TIP3    H150275   0.509   5.324   6.526 -1.5471  0.2910 -0.4344
 7784TIP3    H250276   0.532   5.362   6.671 -0.2677 -0.4456 -0.4326
 7785TIP3   OH250277   2.160   4.839   5.388  0.2956 -0.6498 -0.1220
 7785TIP3    H150278   2.074   4.825   5.429 -0.1130  0.4622 -0.5506
 7785TIP3    H250279   2.182   4.754   5.349  0.1520 -1.3989  1.3546
 7786TIP3   OH250280   3.463   2.712   0.388 -0.2292 -0.1803  0.2924
 7786TIP3    H150281   3.445   2.619   0.372  0.8686 -0.1621 -1.2742
 7786TIP3    H250282   3.463   2.720   0.484 -1.1585 -1.6087  0.4484
 7787TIP3   OH250283   6.707   5.874   5.833  0.0471 -0.2217  0.0287
 7787TIP3    H150284   6.675   5.860   5.744  0.4661 -1.1397  0.0061
 7787TIP3    H250285   6.633   5.912   5.880 -0.0901  0.5326 -0.7746
 7788TIP3   OH250286   3.671   0.662   1.306  0.2373 -0.1677 -0.0425
 7788TIP3    H150287   3.606   0.593   1.289  0.6150 -1.0587  1.8382
 7788TIP3    H250288   3.622   0.729   1.353  0.3206 -0.1172 -0.0279
 7789TIP3   OH250289   5.583   2.521   6.287  0.0699  0.2343 -0.3814
 7789TIP3    H150290   5.551   2.482   6.368  0.6352  1.8515  0.6777
 7789TIP3    H250291   5.601   2.447   6.229  1.9787 -1.1569  1.8363
 7790TIP3   OH250292   4.511   4.139   1.001 -0.1701 -0.1780 -0.2251
 7790TIP3    H150293   4.593   4.107   1.038  0.5437 -1.5825 -2.7511
 7790TIP3    H250294   4.444   4.113   1.065  1.1275 -0.7493  0.9599
 7791TIP3   OH250295   4.196   4.955   0.430  0.2577 -0.1212 -0.2540
 7791TIP3    H150296   4.237   4.942   0.515 -0.7202  1.2278  0.4588
 7791TIP3    H250297   4.132   4.885   0.422  0.8643 -0.6923 -0.2337
 7792TIP3   OH250298   5.781   7.613   6.050  0.0805  0.1745  0.3472
 7792TIP3    H150299   5.700   7.665   6.043 -1.6277 -2.1361  1.3524
 7792TIP3    H250300   5.830   7.654   6.121 -0.8575  0.8451  0.6256
 7793TIP3   OH250301   3.905   2.133   6.640  0.1824  0.5201  0.1000
 7793TIP3    H150302   3.994   2.101   6.652  0.0923 -0.5180 -1.6517
 7793TIP3    H250303   3.859   2.062   6.595 -0.7927  2.0111 -1.4365
 7794TIP3   OH250304   5.692   2.059   6.925 -0.1768 -0.4684  0.3787
 7794TIP3    H150305   5.617   2.050   6.866 -0.0025 -0.1030  0.0982
 7794TIP3    H250306   5.658   2.108   7.000  0.0700  0.7945 -0.3014
 7795TIP3   OH250307   7.622   7.325   1.375 -0.3339 -0.7918  0.5987
 7795TIP3    H150308   7.651   7.342   1.465 -0.9920  0.1392  0.6438
 7795TIP3    H250309   7.528   7.310   1.383 -0.9370  2.0252 -0.2283
 7796TIP3   OH250310   0.210   5.709   1.536 -0.5991  0.7666 -0.2535
 7796TIP3    H150311   0.150   5.701   1.462 -0.6511  1.7258 -0.3335
 7796TIP3    H250312   0.289   5.662   1.509 -0.5316  1.3016 -1.0144
 7797TIP3   OH250313   3.219   6.322   6.466 -0.2641  0.6517  0.6119
 7797TIP3    H150314   3.297   6.275   6.496 -0.5548  0.7795  1.5768
 7797TIP3    H250315   3.199   6.384   6.536 -0.4265  1.5925 -0.2387
 7798TIP3   OH250316   5.167   2.340   6.294  0.2178 -0.2915 -0.0045
 7798TIP3    H150317   5.203   2.400   6.229 -1.2903  0.1336 -0.4655
 7798TIP3    H250318   5.205   2.255   6.272 -0.6847 -0.2745 -1.8067
 7799TIP3   OH250319   3.833   0.998   0.661 -0.0838 -0.0786 -0.2048
 7799TIP3    H150320   3.826   0.942   0.738  0.8360  1.7959  1.3116
 7799TIP3    H250321   3.922   0.983   0.629  1.6996  3.2221  2.5631
 7800TIP3   OH250322   4.217   5.802   6.663 -0.0538  0.1473 -0.3233
 7800TIP3    H150323   4.264   5.722   6.687 -2.5740 -1.8875 -1.6423
 7800TIP3    H250324   4.212   5.852   6.744  0.5488 -1.6034  0.8488
 7801TIP3   OH250325   7.056   5.212   5.754  0.0635 -0.6446 -0.7744
 7801TIP3    H150326   6.968   5.179   5.770 -0.9504  1.6531 -1.2617
 7801TIP3    H250327   7.113   5.135   5.764 -1.5357 -1.5417  3.0552
 7802TIP3   OH250328   0.470   1.749   1.405  0.2066 -0.1808 -0.8583
 7802TIP3    H150329   0.545   1.775   1.353  1.4918 -0.2146  0.8827
 7802TIP3    H250330   0.495   1.767   1.495 -0.8483 -2.5620  0.0260
 7803TIP3   OH250331   3.509   5.803   5.737 -0.4267 -0.0246 -0.1937
 7803TIP3    H150332   3.438   5.854   5.778 -0.7379 -1.6917  1.5163
 7803TIP3    H250333   3.464   5.742   5.679 -0.0712  1.3637 -2.0344
 7804TIP3   OH250334   3.015   0.360   5.410  0.3955 -0.4604  0.6325
 7804TIP3    H150335   3.065   0.290   5.453  0.9923  1.0377  2.4893
 7804TIP3    H250336   2.942   0.377   5.469 -0.0507  0.1192 -0.0704
 7805TIP3   OH250337   5.688   7.271   5.820  0.0558  0.2185 -0.5722
 7805TIP3    H150338   5.657   7.348   5.772 -0.5421  0.5243  0.2765
 7805TIP3    H250339   5.709   7.303   5.908 -1.7847 -0.8385  0.3295
 7806TIP3   OH250340   3.846   7.986   5.351  0.1298  0.2110  0.2607
 7806TIP3    H150341   3.797   7.952   5.426 -0.9094  1.0306 -0.0250
 7806TIP3    H250342   3.894   8.061   5.385 -0.6989  0.8660  0.0380
 7807TIP3   OH250343   7.568   3.255   5.234  0.0383 -0.2253 -0.3167
 7807TIP3    H150344   7.610   3.210   5.161  0.1761  0.8977 -0.9467
 7807TIP3    H250345   7.544   3.341   5.199 -0.9594 -0.0997  0.6174
 7808TIP3   OH250346   3.537   2.652   6.749 -0.2816 -0.1116  0.8446
 7808TIP3    H150347   3.470   2.585   6.734  1.4352 -1.6146 -0.5402
 7808TIP3    H250348   3.584   2.623   6.827 -0.4961  0.3100  1.1331
 7809TIP3   OH250349   8.338   4.414   6.371  0.5413 -0.0780  0.3334
 7809TIP3    H150350   8.384   4.492   6.340  0.8650 -0.8337 -1.1964
 7809TIP3    H250351   8.252   4.418   6.329  0.8935 -0.9885 -0.5194
 7810TIP3   OH250352   8.152   6.285   5.424  0.0789  0.5489 -0.4642
 7810TIP3    H150353   8.165   6.379   5.440  0.1621  0.1793  1.9764
 7810TIP3    H250354   8.160   6.245   5.511  1.6663 -1.9284 -1.6390
 7811TIP3   OH250355   1.074   4.199   6.536  0.2406  0.5119  0.5925
 7811TIP3    H150356   1.058   4.291   6.558  0.4520  0.4457  1.0287
 7811TIP3    H250357   0.996   4.174   6.486 -0.4724  0.5492  1.6310
 7812TIP3   OH250358   1.055   5.126   5.501  0.6960 -0.1798 -0.1994
 7812TIP3    H150359   1.113   5.053   5.523 -1.2817 -1.5607  0.7135
 7812TIP3    H250360   1.033   5.113   5.409  3.1391  1.3752 -1.0922
 7813TIP3   OH250361   5.137   2.710   0.046  0.1826  0.1382 -0.1069
 7813TIP3    H150362   5.095   2.786   0.007 -1.0878 -0.1778  0.5837
 7813TIP3    H250363   5.185   2.669   7.045  1.0699  1.6877 -0.4375
 7814TIP3   OH250364   2.951   5.637   0.985 -0.4339  0.2055  0.0034
 7814TIP3    H150365   2.949   5.553   0.940 -1.5215 -0.3533  1.0349
 7814TIP3    H250366   3.030   5.634   1.039 -0.9967 -0.6085  0.8198
 7815TIP3   OH250367   8.473   0.126   0.049  0.1291 -0.4994 -0.0497
 7815TIP3    H150368   8.524   0.198   0.086 -2.2061 -0.3062  3.1900
 7815TIP3    H250369   8.446   0.158   7.034  0.7123  1.6905  0.5169
 7816TIP3   OH250370   5.350   2.133   6.894  0.3589  0.2946 -0.5126
 7816TIP3    H150371   5.336   2.196   6.823  0.1293  0.3193 -0.4464
 7816TIP3    H250372   5.270   2.080   6.894  0.4171  0.2078 -0.3601
 7817TIP3   OH250373   2.565   0.565   6.959  0.0117  0.2251 -0.0757
 7817TIP3    H150374   2.638   0.534   7.011 -0.1521 -0.4301 -0.2228
 7817TIP3    H250375   2.525   0.485   6.924 -2.4373  0.3363  2.1929
 7818TIP3   OH250376   4.376   5.319   5.414  0.0317 -0.3418 -0.0024
 7818TIP3    H150377   4.329   5.328   5.332 -0.4006  1.8548  0.4468
 7818TIP3    H250378   4.464   5.354   5.396  0.0192 -0.0952  0.4053
 7819TIP3   OH250379   4.837   7.862   6.978  0.4420  0.1688 -0.1901
 7819TIP3    H150380   4.876   7.777   7.001  0.3825  0.5748  1.5428
 7819TIP3    H250381   4.908   7.911   6.937  0.4682 -0.6973 -1.2391
 7820TIP3   OH250382   7.253   5.380   5.817  0.4195  0.2880  0.3105
 7820TIP3    H150383   7.183   5.323   5.786  1.2049 -0.4573 -0.1437
 7820TIP3    H250384   7.209   5.461   5.842 -0.5877 -0.1365 -0.0424
 7821TIP3   OH250385   0.624   6.183   1.228  0.3932 -0.4096 -0.0256
 7821TIP3    H150386   0.675   6.118   1.276 -0.8019 -1.4440 -0.0933
 7821TIP3    H250387   0.604   6.251   1.292  0.4163 -0.8348  0.4368
 7822TIP3   OH250388   7.240   3.377   0.621 -0.3970 -0.4789  0.2163
 7822TIP3    H150389   7.149   3.355   0.598 -0.2789  0.7554 -1.6041
 7822TIP3    H250390   7.254   3.463   0.583  1.0917  0.0337  1.8112
 7823TIP3   OH250391   2.945   2.429   1.493 -0.2336 -0.1712  0.3129
 7823TIP3    H150392   2.895   2.352   1.520  1.4298 -1.7579 -0.8453
 7823TIP3    H250393   2.979   2.466   1.575 -0.3620 -1.1782  0.8334
 7824TIP3   OH250394   1.695   6.583   1.324 -0.1019  0.2972  0.5920
 7824TIP3    H150395   1.669   6.515   1.386 -0.3292 -0.0624  0.1124
 7824TIP3    H250396   1.637   6.656   1.342  0.5179  0.5843  1.4943
 7825TIP3   OH250397   6.525   2.791   6.387 -0.2824 -0.3065  0.0868
 7825TIP3    H150398   6.521   2.808   6.293 -0.1070  0.5361  0.2223
 7825TIP3    H250399   6.454   2.844   6.424  0.0307 -0.1515  0.4851
 7826TIP3   OH250400   7.313   4.303   5.567 -0.5030  0.4131  0.4449
 7826TIP3    H150401   7.235   4.267   5.524  1.4655 -2.4958 -0.9826
 7826TIP3    H250402   7.327   4.387   5.523 -1.6362  0.0200 -0.7651
 7827TIP3   OH250403   5.856   1.760   1.017 -0.3506 -0.4564 -0.7566
 7827TIP3    H150404   5.766   1.792   1.025 -0.8842 -1.4577 -2.1686
 7827TIP3    H250405   5.870   1.708   1.096 -0.1715  1.5498  0.5841
 7828TIP3   OH250406   3.415   8.355   5.898 -0.6538  0.7327  0.7877
 7828TIP3    H150407   3.354   8.285   5.921  0.2338 -1.2159 -2.1998
 7828TIP3    H250408   3.493   8.338   5.952  0.1218 -1.6369 -0.9155
 7829TIP3   OH250409   4.855   6.116   5.581 -0.1729  0.4498  0.2217
 7829TIP3    H150410   4.817   6.204   5.587  0.0152  0.4662  1.3391
 7829TIP3    H250411   4.941   6.130   5.541  0.1460  0.8690  1.0414
 7830TIP3   OH250412   1.184   7.418   5.596 -0.2878 -0.5058 -0.8979
 7830TIP3    H150413   1.228   7.474   5.532 -2.4949 -2.3965 -4.3410
 7830TIP3    H250414   1.221   7.331   5.582  0.2303 -0.7645  1.5697
 7831TIP3   OH250415   5.874   3.583   6.661 -0.1125 -0.3432  0.1566
 7831TIP3    H150416   5.942   3.536   6.709 -0.1909 -0.7729 -0.1463
 7831TIP3    H250417   5.915   3.611   6.580 -0.4043 -0.9683 -0.2156
 7832TIP3   OH250418   6.696   0.698   1.944  0.3735 -0.1824 -0.5458
 7832TIP3    H150419   6.621   0.756   1.934  1.4802  1.2821 -0.5962
 7832TIP3    H250420   6.766   0.754   1.977  1.6467 -1.3756 -1.1058
 7833TIP3   OH250421   1.539   3.783   1.350 -0.2100 -0.0200  0.0898
 7833TIP3    H150422   1.475   3.774   1.420 -0.3211 -0.2532 -0.0407
 7833TIP3    H250423   1.624   3.780   1.395 -0.1997 -2.1176  0.0572
 7834TIP3   OH250424   1.539   4.782   6.545  0.2125 -0.1701 -0.1088
 7834TIP3    H150425   1.501   4.730   6.616 -0.1399  0.8258  0.4590
 7834TIP3    H250426   1.483   4.860   6.540  0.2421 -0.2071 -1.4738
 7835TIP3   OH250427   7.151   4.324   5.792 -0.0926  0.2194 -0.0132
 7835TIP3    H150428   7.192   4.301   5.875 -0.5279 -2.3272 -0.4237
 7835TIP3    H250429   7.224   4.338   5.732  0.2127 -0.6214  0.1555
 7836TIP3   OH250430   1.302   0.472   0.012  0.3164 -0.9506 -0.4787
 7836TIP3    H150431   1.372   0.457   7.019  0.1710 -2.1571 -0.3656
 7836TIP3    H250432   1.223   0.436   7.041 -0.3082  0.5958 -0.7045
 7837TIP3   OH250433   3.851   0.185   6.719 -0.6550  0.1117 -0.5083
 7837TIP3    H150434   3.873   0.235   6.641 -0.7738 -1.4624 -1.5857
 7837TIP3    H250435   3.919   0.210   6.783 -2.9006  4.6797  0.5169
 7838TIP3   OH250436   4.090   0.921   0.578 -0.4639  0.0184 -0.2022
 7838TIP3    H150437   4.138   0.868   0.641  0.6200 -0.7206 -1.5743
 7838TIP3    H250438   4.084   0.865   0.500 -3.5460  0.0992 -0.1400
 7839TIP3   OH250439   6.752   1.802   2.131  0.6967  0.1493  0.1239
 7839TIP3    H150440   6.659   1.803   2.106  0.7490  0.3134 -0.0687
 7839TIP3    H250441   6.774   1.709   2.137  0.4356  0.1049  0.4912
 7840TIP3   OH250442   3.445   6.231   1.755 -0.0069 -0.0018 -0.0286
 7840TIP3    H150443   3.404   6.267   1.834  0.3081  2.1009 -0.7641
 7840TIP3    H250444   3.382   6.250   1.685  0.8723  0.5440 -0.6853
 7841TIP3   OH250445   0.501   6.124   6.742 -0.4706  0.0387 -0.4718
 7841TIP3    H150446   0.460   6.208   6.762 -0.5758  0.1021 -0.9445
 7841TIP3    H250447   0.593   6.136   6.766 -0.8189 -0.2767  1.0871
 7842TIP3   OH250448   3.542   5.623   0.465 -0.3466 -0.4281 -0.3814
 7842TIP3    H150449   3.497   5.702   0.434 -0.0135  0.3399  1.0061
 7842TIP3    H250450   3.494   5.551   0.426 -0.2918  0.4584 -2.1968
 7843TIP3   OH250451   4.480   0.998   6.486  0.0457  0.1586  0.4110
 7843TIP3    H150452   4.543   0.930   6.464  0.1669 -0.4946  2.5870
 7843TIP3    H250453   4.395   0.954   6.480  0.0278  0.1703  0.5948
 7844TIP3   OH250454   0.832   6.297   0.861  0.0893  0.0140  0.6248
 7844TIP3    H150455   0.849   6.294   0.955 -1.7908 -0.8091  0.9861
 7844TIP3    H250456   0.831   6.205   0.834 -2.8622 -0.0209  0.5501
 7845TIP3   OH250457   6.290   7.254   0.364 -0.3993 -0.4983 -0.0406
 7845TIP3    H150458   6.322   7.239   0.453  1.2559 -0.2785 -0.5725
 7845TIP3    H250459   6.257   7.343   0.365  1.5553  0.2709 -0.1520
 7846TIP3   OH250460   4.444   6.916   6.812  0.1703  0.1113  0.1575
 7846TIP3    H150461   4.508   6.983   6.835 -0.0456  0.7351 -1.0128
 7846TIP3    H250462   4.375   6.926   6.878  1.3524 -0.7323  1.5744
 7847TIP3   OH250463   0.862   0.352   0.971  0.1843  0.2397  0.4358
 7847TIP3    H150464   0.871   0.433   0.922  0.0621 -0.9373 -1.6219
 7847TIP3    H250465   0.769   0.331   0.966  0.3205 -0.3700  0.3581
 7848TIP3   OH250466   4.844   6.510   6.812  0.4105  0.1490  0.1460
 7848TIP3    H150467   4.786   6.514   6.735  0.1894 -0.6528  0.2671
 7848TIP3    H250468   4.786   6.520   6.887  0.4972 -0.1094  0.2486
 7849TIP3   OH250469   0.575   2.196   5.746 -0.5492 -0.0698 -0.6480
 7849TIP3    H150470   0.570   2.272   5.688  0.1657 -0.1363 -0.7977
 7849TIP3    H250471   0.640   2.139   5.705 -0.7682 -0.5709 -0.3079
 7850TIP3   OH250472   5.891   7.804   1.629 -0.0108 -0.2570  0.1848
 7850TIP3    H150473   5.841   7.723   1.638  0.8638 -0.7309  0.9839
 7850TIP3    H250474   5.901   7.836   1.719  1.1479 -0.2102  0.0522
 7851TIP3   OH250475   4.582   1.519   0.596 -0.6036 -0.0055  0.2724
 7851TIP3    H150476   4.609   1.569   0.674 -1.6565  2.7465 -1.0036
 7851TIP3    H250477   4.650   1.538   0.531 -1.0590 -0.1731 -0.2618
 7852TIP3   OH250478   4.974   0.564   5.793  0.1257  0.4633 -0.3589
 7852TIP3    H150479   4.914   0.574   5.719 -0.8678 -0.8287  0.2327
 7852TIP3    H250480   5.044   0.509   5.760 -0.4572 -0.3406 -0.2816
 7853TIP3   OH250481   3.290   1.795   6.014 -0.2508  0.0001 -0.2237
 7853TIP3    H150482   3.207   1.829   6.048 -0.3222 -1.4395  1.2122
 7853TIP3    H250483   3.354   1.815   6.083  0.5726  0.8742 -1.2033
 7854TIP3   OH250484   3.678   7.448   2.009  0.4401  0.4701 -0.5718
 7854TIP3    H150485   3.751   7.496   2.048  2.1754 -1.3151 -1.4237
 7854TIP3    H250486   3.614   7.439   2.080  0.8698  2.3746  0.0987
 7855TIP3   OH250487   8.358   7.019   5.544  0.8936 -0.2183 -0.0986
 7855TIP3    H150488   8.368   7.112   5.563 -0.8715 -0.1387  0.6400
 7855TIP3    H250489   8.333   7.016   5.452  2.7303 -0.1208 -0.6352
 7856TIP3   OH250490   0.818   7.471   6.788 -0.0414 -0.2000 -0.3518
 7856TIP3    H150491   0.843   7.428   6.706  0.1125 -1.2356  0.2137
 7856TIP3    H250492   0.731   7.507   6.771 -1.2099 -2.7016 -0.2084
 7857TIP3   OH250493   8.408   4.637   6.010  0.2447  0.3431 -0.3867
 7857TIP3    H150494   8.330   4.601   6.053  0.0851  0.0330 -0.9205
 7857TIP3    H250495   8.436   4.709   6.067 -1.1691  1.2910 -0.8259
 7858TIP3   OH250496   0.589   6.490   0.708 -0.2514 -0.2471  0.1487
 7858TIP3    H150497   0.576   6.433   0.784 -2.0159 -0.2632 -0.1283
 7858TIP3    H250498   0.683   6.487   0.691 -0.0401 -1.4235  1.4095
 7859TIP3   OH250499   0.082   1.418   0.834 -0.3620 -0.0363  0.2102
 7859TIP3    H150500   0.014   1.448   0.774  0.6687  0.7194 -0.5970
 7859TIP3    H250501   0.140   1.492   0.844  0.9047 -0.9826  0.1040
 7860TIP3   OH250502   7.315   2.383   5.396  0.5837 -0.1635  0.4218
 7860TIP3    H150503   7.402   2.423   5.394 -0.3227  2.0078  1.6800
 7860TIP3    H250504   7.255   2.456   5.392 -1.1993 -1.4451  1.9909
 7861TIP3   OH250505   5.680   4.999   6.835 -0.6564  0.0431 -0.4651
 7861TIP3    H150506   5.684   5.058   6.760  0.2888  0.2241 -0.2874
 7861TIP3    H250507   5.668   4.912   6.796  4.9303 -0.6933 -1.3454
 7862TIP3   OH250508   2.453   7.135   6.932 -0.3999  0.3462  0.5905
 7862TIP3    H150509   2.391   7.194   6.890 -0.3285  1.9222  2.5583
 7862TIP3    H250510   2.447   7.157   7.025  0.7628 -1.7196  1.2005
 7863TIP3   OH250511   3.163   5.943   6.898  0.5166  0.4540  0.1162
 7863TIP3    H150512   3.076   5.946   6.858  0.7072  0.5783 -0.2926
 7863TIP3    H250513   3.209   6.018   6.861  0.6697  0.6213  0.6370
 7864TIP3   OH250514   6.728   7.060   1.463 -0.1553  0.0403  0.5627
 7864TIP3    H150515   6.666   7.018   1.403 -0.0961 -0.6166  0.9573
 7864TIP3    H250516   6.674   7.124   1.510 -0.1600  0.7116 -0.3173
 7865TIP3   OH250517   0.898   8.024   0.427  0.1179 -0.3945  0.1444
 7865TIP3    H150518   0.880   7.931   0.418 -0.2211 -0.2892 -0.2623
 7865TIP3    H250519   0.818   8.068   0.400  0.5315  0.0396 -0.4033
 7866TIP3   OH250520   4.886   8.459   1.147 -0.3895  0.1418  0.7577
 7866TIP3    H150521   4.819   8.505   1.096 -0.5796  2.6797  3.0485
 7866TIP3    H250522   4.958   8.521   1.154  1.2505 -1.6193  0.4083
 7867TIP3   OH250523   3.055   3.243   6.403  0.1097  0.0039 -0.7388
 7867TIP3    H150524   3.025   3.313   6.461 -1.4236 -0.1959 -1.2498
 7867TIP3    H250525   3.126   3.282   6.353  1.1348  0.3368  0.8925
 7868TIP3   OH250526   7.250   5.204   5.287 -0.0838  0.0325 -0.9648
 7868TIP3    H150527   7.222   5.295   5.277  0.4643  0.3913  0.5067
 7868TIP3    H250528   7.275   5.177   5.199 -1.7450  0.7889 -1.7057
 7869TIP3   OH250529   6.159   0.684   0.555  0.2597  0.4298  0.1394
 7869TIP3    H150530   6.118   0.748   0.613 -1.7292  0.0173 -0.7231
 7869TIP3    H250531   6.109   0.690   0.474 -0.3689 -2.5706  0.2091
 7870TIP3   OH250532   5.433   0.511   6.155  0.5226  0.5441 -0.1048
 7870TIP3    H150533   5.430   0.518   6.060 -1.0539 -1.3269 -0.2585
 7870TIP3    H250534   5.355   0.557   6.185  0.2026 -0.1702  0.1695
 7871TIP3   OH250535   5.704   5.934   5.976 -0.5411  0.2413  0.1597
 7871TIP3    H150536   5.770   5.997   6.007 -0.4982  0.0950  0.3648
 7871TIP3    H250537   5.743   5.896   5.898  0.2069 -0.8178  1.0125
 7872TIP3   OH250538   4.385   6.533   0.676 -0.8814  0.5951 -0.5313
 7872TIP3    H150539   4.439   6.575   0.610  0.2285 -1.1765 -0.8125
 7872TIP3    H250540   4.327   6.474   0.627  0.0020 -0.7899  0.0332
 7873TIP3   OH250541   6.008   6.894   5.690 -0.8232  0.4718 -0.2053
 7873TIP3    H150542   6.097   6.919   5.663  0.1240 -2.3530  0.0022
 7873TIP3    H250543   5.958   6.975   5.681  1.8453  2.3197  0.1261
 7874TIP3   OH250544   4.208   7.353   1.190 -0.0638  0.3312 -0.1906
 7874TIP3    H150545   4.185   7.423   1.251  0.0592  0.5686 -0.4165
 7874TIP3    H250546   4.301   7.368   1.170 -0.2262  0.5375 -0.8073
 7875TIP3   OH250547   8.508   6.296   0.965  0.8615  0.0867 -0.2656
 7875TIP3    H150548   8.497   6.274   1.057 -0.4079 -1.8674 -0.8219
 7875TIP3    H250549   8.534   6.214   0.924  1.3906  0.9174 -1.6694
 7876TIP3   OH250550   4.237   7.863   5.326 -0.1757 -1.0341  0.2011
 7876TIP3    H150551   4.216   7.857   5.419  0.5189  0.7525  0.5078
 7876TIP3    H250552   4.185   7.794   5.285 -0.9378 -1.4672  1.8297
 7877TIP3   OH250553   2.860   5.211   0.108 -0.3047  0.1430  0.0686
 7877TIP3    H150554   2.939   5.235   0.060  0.1629  0.4797  0.9814
 7877TIP3    H250555   2.887   5.136   0.162 -0.8827 -0.3700 -0.3380
 7878TIP3   OH250556   3.960   2.311   1.135 -0.0588  0.2784  0.0203
 7878TIP3    H150557   3.951   2.357   1.219  0.9079  0.8428 -0.1717
 7878TIP3    H250558   4.048   2.276   1.136 -0.7271 -1.5002  0.0961
 7879TIP3   OH250559   5.119   4.166   0.563 -0.2510  0.2375  0.2303
 7879TIP3    H150560   5.187   4.195   0.623 -1.6428  1.9966  1.0460
 7879TIP3    H250561   5.139   4.074   0.547  1.5034  0.3455  1.5079
 7880TIP3   OH250562   7.297   1.850   0.525 -0.2972  0.2024 -0.9222
 7880TIP3    H150563   7.334   1.765   0.549  0.9997  0.6372 -1.3240
 7880TIP3    H250564   7.345   1.876   0.446 -0.7151  1.2891 -0.8361
 7881TIP3   OH250565   6.693   4.493   5.788  0.6663  0.0393  0.3023
 7881TIP3    H150566   6.743   4.529   5.860  1.0608 -1.2241  0.6866
 7881TIP3    H250567   6.752   4.431   5.746 -0.1613 -0.5712  0.0063
 7882TIP3   OH250568   3.029   0.917   0.433  0.6010  0.4590 -0.1628
 7882TIP3    H150569   3.080   0.847   0.476  0.2228 -0.4760 -1.1992
 7882TIP3    H250570   2.963   0.870   0.382 -0.2488  1.6188 -0.1547
 7883TIP3   OH250571   2.677   7.812   1.163 -1.0650 -0.1078  0.3882
 7883TIP3    H150572   2.703   7.759   1.238 -1.4308 -2.9574 -1.3182
 7883TIP3    H250573   2.617   7.877   1.199  0.1347 -0.2102  2.7728
 7884TIP3   OH250574   0.448   4.125   6.774 -0.0298 -0.0479  0.6481
 7884TIP3    H150575   0.402   4.192   6.825  1.4703  1.5925 -0.0439
 7884TIP3    H250576   0.459   4.164   6.688  2.2971 -0.4815  0.6726
 7885TIP3   OH250577   3.227   7.854   5.892 -0.5396  0.3771  0.1265
 7885TIP3    H150578   3.272   7.860   5.808 -1.0210 -1.4688 -0.3093
 7885TIP3    H250579   3.168   7.779   5.882  0.3016 -0.7049  2.5043
 7886TIP3   OH250580   4.081   6.714   1.427  0.2688  0.3500  0.2064
 7886TIP3    H150581   4.028   6.716   1.506  1.2410  1.0310  0.8776
 7886TIP3    H250582   4.032   6.765   1.363  0.8691  2.4623  1.3491
 7887TIP3   OH250583   0.768   6.574   6.717  0.7794  0.2368  0.0969
 7887TIP3    H150584   0.790   6.483   6.696  1.4366  0.4432 -0.1250
 7887TIP3    H250585   0.675   6.582   6.694  0.4560 -0.6409  1.0070
 7888TIP3   OH250586   5.803   0.454   0.084  0.0745  1.1350 -0.1113
 7888TIP3    H150587   5.852   0.506   0.019  0.0843  0.9045 -0.2898
 7888TIP3    H250588   5.814   0.364   0.055  0.3648  1.0015  0.4050
 7889TIP3   OH250589   3.122   2.293   1.739  0.1248  0.6629  0.3812
 7889TIP3    H150590   3.127   2.225   1.807  0.2393 -0.2045 -0.4612
 7889TIP3    H250591   3.057   2.260   1.678 -0.6041  1.8436  0.4894
 7890TIP3   OH250592   6.996   6.577   0.036  0.0266  0.3540 -0.1808
 7890TIP3    H150593   7.022   6.489   0.011 -1.1013 -0.4180  1.2333
 7890TIP3    H250594   7.075   6.614   0.076  1.0406  0.6776 -2.3344
 7891TIP3   OH250595   0.629   7.547   6.612  0.0374 -0.0176 -0.1434
 7891TIP3    H150596   0.653   7.638   6.597  0.8628 -0.4372 -1.5564
 7891TIP3    H250597   0.622   7.509   6.524 -2.7376 -0.7389  0.2954
 7892TIP3   OH250598   5.705   2.953   1.565 -0.1650 -0.2584  0.0343
 7892TIP3    H150599   5.750   2.962   1.481  0.5754 -3.2088 -0.0210
 7892TIP3    H250600   5.614   2.935   1.542 -0.2962  0.5087 -0.0597
 7893TIP3   OH250601   2.918   3.032   5.709 -0.3364  0.2187 -0.1833
 7893TIP3    H150602   2.910   3.103   5.645  0.9614 -0.2442 -0.8898
 7893TIP3    H250603   3.013   3.018   5.718 -0.5575 -1.1818  0.2171
 7894TIP3   OH250604   7.649   3.846   6.146 -0.2573  0.4662 -0.1633
 7894TIP3    H150605   7.711   3.788   6.101 -1.3911 -0.4461 -0.5965
 7894TIP3    H250606   7.684   3.934   6.131  0.4197  0.0392 -1.2068
 7895TIP3   OH250607   1.995   4.368   1.303 -0.3991 -0.2974 -0.1827
 7895TIP3    H150608   2.071   4.388   1.250 -1.5674  0.5893 -1.6007
 7895TIP3    H250609   1.965   4.453   1.336  0.4126 -0.8370  2.1274
 7896TIP3   OH250610   7.691   1.808   1.910 -0.3247 -0.4133  0.0538
 7896TIP3    H150611   7.656   1.724   1.878  0.3012 -0.9898  0.8444
 7896TIP3    H250612   7.780   1.787   1.938  0.1518  0.7220 -0.5654
 7897TIP3   OH250613   6.444   6.717   6.348  0.4570 -0.5845 -0.4417
 7897TIP3    H150614   6.524   6.769   6.358  0.8363 -1.1067 -0.6974
 7897TIP3    H250615   6.395   6.732   6.429 -0.0436  1.1697 -1.0149
 7898TIP3   OH250616   0.446   7.696   0.410  0.0172 -0.0041  0.0597
 7898TIP3    H150617   0.454   7.662   0.499  0.5660 -0.7497 -0.2662
 7898TIP3    H250618   0.492   7.780   0.412  0.2837 -0.1591  0.3993
 7899TIP3   OH250619   6.215   3.511   0.473 -0.1330 -0.1759  0.0513
 7899TIP3    H150620   6.143   3.568   0.499  1.0365  1.8749 -1.0362
 7899TIP3    H250621   6.174   3.448   0.413 -1.6234 -1.1924  2.0021
 7900TIP3   OH250622   4.266   5.110   7.005  0.4600 -0.4498  0.3974
 7900TIP3    H150623   4.286   5.048   0.004  2.6349 -0.0081  0.2475
 7900TIP3    H250624   4.293   5.065   6.925  0.7267  0.1541  0.1443
 7901TIP3   OH250625   4.612   3.311   1.147  0.8064  0.0852 -0.1920
 7901TIP3    H150626   4.625   3.249   1.220  0.9997  0.9056  0.4861
 7901TIP3    H250627   4.687   3.370   1.152  1.1799 -0.2467 -1.4943
 7902TIP3   OH250628   5.552   2.087   0.486  0.7475 -0.4075  0.1438
 7902TIP3    H150629   5.556   2.072   0.580 -0.4783  0.1564  0.3041
 7902TIP3    H250630   5.495   2.018   0.453 -1.7525  1.3875  0.3590
 7903TIP3   OH250631   7.995   8.212   0.017  0.3019  0.0333  0.4914
 7903TIP3    H150632   7.901   8.205   0.035 -0.0954 -1.1746 -1.5959
 7903TIP3    H250633   8.032   8.131   0.052  0.2442 -0.2874 -0.1596
 7904TIP3   OH250634   7.222   2.105   6.761  1.2601 -0.1440  0.4375
 7904TIP3    H150635   7.210   2.036   6.696  0.0081 -0.2221  0.7180
 7904TIP3    H250636   7.273   2.065   6.831  1.8378 -0.3264 -0.0810
 7905TIP3   OH250637   8.045   6.681   6.889 -0.3651  0.0734 -0.4436
 7905TIP3    H150638   7.997   6.640   6.816 -1.0635 -0.3839  0.2473
 7905TIP3    H250639   8.027   6.774   6.880 -0.1486  0.0596 -1.0635
 7906TIP3   OH250640   5.571   3.366   6.072  0.3289 -0.4266 -0.7705
 7906TIP3    H150641   5.488   3.334   6.037 -0.1223 -0.5975  0.4111
 7906TIP3    H250642   5.618   3.288   6.099  0.5364 -0.2822 -0.7126
 7907TIP3   OH250643   3.167   4.427   0.894 -0.6764  0.4862 -0.1444
 7907TIP3    H150644   3.108   4.443   0.969 -0.9898  2.3661 -0.7289
 7907TIP3    H250645   3.244   4.385   0.932 -2.2155 -1.7811  0.6924
 7908TIP3   OH250646   4.594   0.014   1.047  0.2059  0.3865 -0.2764
 7908TIP3    H150647   4.547   0.091   1.017 -0.0513  0.5470  0.5199
 7908TIP3    H250648   4.671   0.010   0.991  0.4328  1.4541 -0.0602
 7909TIP3   OH250649   3.781   4.601   5.975 -0.0080 -0.6130 -0.2796
 7909TIP3    H150650   3.848   4.555   5.925  0.3937  0.7510 -1.0267
 7909TIP3    H250651   3.775   4.552   6.057  1.9066 -0.7650 -0.1857
 7910TIP3   OH250652   0.784   8.012   0.032 -0.1662  0.1844  0.1100
 7910TIP3    H150653   0.851   8.031   7.037 -1.0810 -0.6926 -1.1110
 7910TIP3    H250654   0.815   7.932   0.074 -1.1985 -1.2011 -1.6077
 7911TIP3   OH250655   2.756   6.752   6.110 -0.1327  0.3516  0.2964
 7911TIP3    H150656   2.705   6.757   6.191 -0.7105  0.9013 -0.0898
 7911TIP3    H250657   2.728   6.828   6.060 -0.4876 -0.5092 -0.8414
 7912TIP3   OH250658   6.095   8.520   5.176 -0.0455  0.2057 -0.4711
 7912TIP3    H150659   6.073   8.514   5.083 -1.1219 -0.3650 -0.1961
 7912TIP3    H250660   6.063   0.071   5.202 -0.0315  0.2373 -0.5564
 7913TIP3   OH250661   3.720   1.933   2.049 -0.5079  0.7480 -0.1227
 7913TIP3    H150662   3.668   1.988   1.991 -0.4939  1.7872  0.8252
 7913TIP3    H250663   3.680   1.846   2.041 -1.1789  1.1101 -0.8609
 7914TIP3   OH250664   6.889   6.356   6.770  0.0850  0.0099 -0.4990
 7914TIP3    H150665   6.946   6.304   6.826 -0.3704  0.1957  0.1532
 7914TIP3    H250666   6.857   6.295   6.704  2.1190  0.2009 -1.7444
 7915TIP3   OH250667   7.503   0.258   5.843 -0.0122 -0.2606  0.0197
 7915TIP3    H150668   7.569   0.205   5.887  0.0909  0.4628  0.7616
 7915TIP3    H250669   7.424   0.205   5.846  0.5026 -1.1155 -0.8346
 7916TIP3   OH250670   1.164   2.887   1.439  0.2057 -0.0987  0.0374
 7916TIP3    H150671   1.139   2.863   1.349  1.2506 -0.0429 -0.2760
 7916TIP3    H250672   1.111   2.964   1.458  0.7195  0.5107 -0.9252
 7917TIP3   OH250673   0.863   3.461   6.424 -0.2166  0.1843  0.2695
 7917TIP3    H150674   0.771   3.479   6.407  0.0875 -0.3801 -2.3523
 7917TIP3    H250675   0.900   3.547   6.448 -1.1565  0.6625  0.0504
 7918TIP3   OH250676   7.347   7.584   0.932  0.1284  0.8918 -0.1469
 7918TIP3    H150677   7.414   7.560   0.996 -0.5240  2.2528  1.0985
 7918TIP3    H250678   7.283   7.513   0.937  1.1400 -0.1268 -0.9320
 7919TIP3   OH250679   2.805   4.626   6.954  0.4354 -0.1068 -0.5780
 7919TIP3    H150680   2.878   4.685   6.972 -0.0400  0.6795 -1.2013
 7919TIP3    H250681   2.791   4.632   6.860  0.2689 -1.0886 -0.6251
 7920TIP3   OH250682   5.547   2.164   1.198  0.3876 -0.0283 -0.4529
 7920TIP3    H150683   5.513   2.250   1.175  1.3435  0.4516 -0.1589
 7920TIP3    H250684   5.561   2.168   1.292  1.4444 -0.1052 -0.5857
 7921TIP3   OH250685   1.753   6.910   6.927  0.4988  0.0648  0.1915
 7921TIP3    H150686   1.693   6.866   6.866 -1.1346  2.3870 -0.0298
 7921TIP3    H250687   1.815   6.956   6.871  2.1235 -1.7009  0.4229
 7922TIP3   OH250688   4.029   2.754   5.505 -0.1452  0.1280  0.0273
 7922TIP3    H150689   4.119   2.721   5.508 -0.2465 -0.1718 -0.2663
 7922TIP3    H250690   3.984   2.698   5.441 -0.3654  0.6970 -0.3275
 7923TIP3   OH250691   2.008   4.385   5.280  1.1959 -0.4647  0.1055
 7923TIP3    H150692   2.012   4.336   5.362  0.7262  2.0810  1.7983
 7923TIP3    H250693   1.915   4.397   5.263  1.2835 -1.2125 -0.9949
 7924TIP3   OH250694   5.778   7.761   6.515 -0.6252 -0.1964 -0.5905
 7924TIP3    H150695   5.821   7.806   6.588  0.8402 -1.2857 -0.7369
 7924TIP3    H250696   5.695   7.729   6.551 -1.1220  1.4822 -0.1505
 7925TIP3   OH250697   6.392   1.417   5.251 -0.7363  0.0204 -0.6663
 7925TIP3    H150698   6.464   1.369   5.210 -0.3593  0.3299 -0.3757
 7925TIP3    H250699   6.322   1.414   5.186 -0.0989  0.6373 -1.4091
 7926TIP3   OH250700   1.685   7.606   0.518  0.0644  0.2139 -0.3705
 7926TIP3    H150701   1.653   7.690   0.552 -1.0143 -0.5013  0.4366
 7926TIP3    H250702   1.780   7.610   0.531  0.0781  1.4450 -0.6848
 7927TIP3   OH250703   7.378   2.366   6.079  0.2793 -0.0854 -0.0542
 7927TIP3    H150704   7.330   2.398   6.155 -1.1175  0.7785 -1.2328
 7927TIP3    H250705   7.310   2.330   6.022  1.4412 -1.9450 -0.3334
 7928TIP3   OH250706   6.208   2.118   7.039  0.1383  0.5108 -0.4852
 7928TIP3    H150707   6.246   2.199   7.005 -1.3146  1.5894  0.3607
 7928TIP3    H250708   6.125   2.110   6.993 -0.1409 -0.0056  0.1089
 7929TIP3   OH250709   3.760   6.584   6.544  0.2673 -0.6510 -0.3358
 7929TIP3    H150710   3.835   6.553   6.594 -0.1091  0.4015  0.9308
 7929TIP3    H250711   3.684   6.556   6.595 -0.1524 -0.1716 -0.6855
 7930TIP3   OH250712   4.642   6.344   1.567 -0.3198  0.1545 -0.3421
 7930TIP3    H150713   4.690   6.424   1.544  1.5432 -0.7560  0.1952
 7930TIP3    H250714   4.569   6.375   1.620  0.2022  1.5342 -0.3764
 7931TIP3   OH250715   4.502   4.579   5.973 -0.0453 -0.4245 -0.5878
 7931TIP3    H150716   4.454   4.551   6.051 -1.0354  0.7686 -0.7382
 7931TIP3    H250717   4.488   4.508   5.910 -3.9536  0.9503 -1.5570
 7932TIP3   OH250718   4.238   1.531   0.906 -0.3342 -0.8162 -0.1569
 7932TIP3    H150719   4.148   1.526   0.939 -0.7753 -0.2775 -1.2232
 7932TIP3    H250720   4.261   1.623   0.915  0.2033 -0.9977  0.3321
 7933TIP3   OH250721   8.385   5.813   1.975 -0.0591 -0.0150  0.0582
 7933TIP3    H150722   8.309   5.865   1.949 -0.4587 -0.6701 -0.1061
 7933TIP3    H250723   8.350   5.752   2.041  0.0963 -1.0071 -0.7605
 7934TIP3   OH250724   8.096   2.219   1.112 -0.6514  0.0535 -0.0198
 7934TIP3    H150725   8.187   2.248   1.110  0.2383 -2.5169 -0.4589
 7934TIP3    H250726   8.056   2.269   1.183  0.6416  2.3787 -0.8221
 7935TIP3   OH250727   7.912   3.013   1.832 -0.1252 -0.3944 -0.0261
 7935TIP3    H150728   7.962   3.093   1.852  0.2264 -0.5352 -0.3169
 7935TIP3    H250729   7.977   2.943   1.835 -0.7140 -0.8978  1.7481
 7936TIP3   OH250730   7.262   5.120   1.289 -0.2308 -0.4583  0.6301
 7936TIP3    H150731   7.222   5.047   1.337  0.7395 -2.1180 -0.9679
 7936TIP3    H250732   7.263   5.091   1.198  2.8988  0.2748  0.3376
 7937TIP3   OH250733   2.326   5.697   1.327  0.7628  0.8268  0.1319
 7937TIP3    H150734   2.387   5.647   1.382  0.5728 -2.4536 -2.2950
 7937TIP3    H250735   2.378   5.721   1.250 -0.0127  1.4818 -0.2003
 7938TIP3   OH250736   6.741   4.839   1.954  0.2766 -0.3875  0.2941
 7938TIP3    H150737   6.812   4.866   1.896 -0.2899 -1.9874 -1.2496
 7938TIP3    H250738   6.785   4.800   2.030  1.0599 -0.7899 -0.3538
 7939TIP3   OH250739   7.086   7.481   6.005 -0.3718  0.4715 -0.4311
 7939TIP3    H150740   7.094   7.447   6.094  0.0865  0.7657 -0.3542
 7939TIP3    H250741   7.142   7.559   6.005 -1.9576  1.6859 -0.3643
 7940TIP3   OH250742   7.347   6.010   6.724 -0.6651  0.2477 -0.0730
 7940TIP3    H150743   7.421   5.985   6.669 -0.4411 -0.2050  0.4221
 7940TIP3    H250744   7.294   5.931   6.732 -1.0386  0.4826 -0.1591
 7941TIP3   OH250745   3.410   2.406   5.617  0.2011 -0.0218  0.4005
 7941TIP3    H150746   3.357   2.481   5.593  0.2231  0.3798  1.5313
 7941TIP3    H250747   3.500   2.436   5.609  0.2144 -0.0055  0.6023
 7942TIP3   OH250748   1.510   3.689   6.657 -0.3380 -0.2325 -0.2318
 7942TIP3    H150749   1.536   3.607   6.698 -0.0981  0.2160  0.5384
 7942TIP3    H250750   1.421   3.674   6.626  0.1887 -1.2375 -1.3726
 7943TIP3   OH250751   7.473   8.217   5.534  0.1931  0.0018 -0.7871
 7943TIP3    H150752   7.518   8.214   5.449  0.1049  0.0354 -0.8350
 7943TIP3    H250753   7.429   8.132   5.541  0.0022  0.0903 -0.8844
 7944TIP3   OH250754   0.726   3.958   0.296 -0.1759  0.2989  0.2921
 7944TIP3    H150755   0.815   3.953   0.262 -0.5376  0.2583 -0.6736
 7944TIP3    H250756   0.689   3.871   0.280 -0.3180  0.2422  0.9045
 7945TIP3   OH250757   3.509   0.161   6.679  0.3888  0.0715  0.0144
 7945TIP3    H150758   3.501   0.249   6.715  2.1849  0.6733 -0.9022
 7945TIP3    H250759   3.565   0.114   6.741 -2.3483 -1.2071  1.6804
 7946TIP3   OH250760   0.178   6.388   6.649  0.0360  0.9065 -0.2245
 7946TIP3    H150761   0.182   6.483   6.664 -1.0531  1.0353 -0.6907
 7946TIP3    H250762   0.157   6.379   6.557  0.9470  0.1819 -0.3723
 7947TIP3   OH250763   5.782   2.110   0.346  0.1960  0.4600 -0.1083
 7947TIP3    H150764   5.692   2.096   0.376  0.5184 -1.7810 -0.0216
 7947TIP3    H250765   5.773   2.132   0.253 -0.5028  2.1048  0.3150
 7948TIP3   OH250766   1.588   6.751   1.559  0.2145  0.4675  0.2512
 7948TIP3    H150767   1.574   6.798   1.641  2.3242  1.3818  0.1581
 7948TIP3    H250768   1.588   6.658   1.584  1.6095  0.7577  1.4678
 7949TIP3   OH250769   8.222   7.919   5.916  0.0823  0.6324 -0.1162
 7949TIP3    H150770   8.307   7.936   5.874 -0.4479  2.1556 -0.6339
 7949TIP3    H250771   8.228   7.828   5.945  0.2990 -0.7234 -3.8991
 7950TIP3   OH250772   2.307   3.999   5.022  0.2440  0.2027  0.0742
 7950TIP3    H150773   2.263   3.954   4.950 -1.1167  1.2322  0.2188
 7950TIP3    H250774   2.240   4.058   5.058  0.7798 -0.4968  2.3737
 7951TIP3   OH250775   6.135   7.220   5.577  0.1556 -0.2989  0.1698
 7951TIP3    H150776   6.047   7.183   5.584 -0.5805  1.2311 -0.5303
 7951TIP3    H250777   6.123   7.314   5.588  1.3167  0.2519 -2.4510
 7952TIP3   OH250778   6.540   5.644   5.994 -0.7381 -0.5049  0.3208
 7952TIP3    H150779   6.622   5.660   5.949 -1.3306 -1.0441 -1.0013
 7952TIP3    H250780   6.542   5.551   6.017 -0.5516 -0.2924  1.1946
 7953TIP3   OH250781   2.391   2.920   5.541 -0.0283  0.3050  0.5018
 7953TIP3    H150782   2.384   2.836   5.495 -2.8757 -0.1516  1.5384
 7953TIP3    H250783   2.358   2.902   5.629 -0.9596  2.5195  0.6752
 7954TIP3   OH250784   1.488   6.960   0.716 -0.0491 -0.0275  0.4879
 7954TIP3    H150785   1.410   6.922   0.757 -0.1162  0.5106  0.8712
 7954TIP3    H250786   1.561   6.907   0.750 -0.3300 -1.2485 -0.7400
 7955TIP3   OH250787   4.534   1.514   5.716  0.2497 -0.2264 -0.4833
 7955TIP3    H150788   4.590   1.588   5.693  1.0852 -0.7259 -0.0600
 7955TIP3    H250789   4.448   1.538   5.680  1.0700 -0.1712 -2.5504
 7956TIP3   OH250790   7.062   0.757   1.529 -0.3501 -0.0146  0.3807
 7956TIP3    H150791   7.018   0.674   1.509 -0.7958  0.4946 -0.8539
 7956TIP3    H250792   7.043   0.772   1.622 -1.1548 -0.7640  0.3552
 7957TIP3   OH250793   7.591   7.487   6.016 -0.3783  0.1250 -0.2674
 7957TIP3    H150794   7.639   7.559   6.057 -0.2469 -0.1920  0.1457
 7957TIP3    H250795   7.631   7.478   5.930 -0.3745  0.5249 -0.3072
 7958TIP3   OH250796   4.295   4.997   5.761 -0.6838 -0.5831 -0.1671
 7958TIP3    H150797   4.234   5.019   5.691  0.1520 -1.4536 -1.2061
 7958TIP3    H250798   4.378   4.980   5.716  0.4709  1.0362  1.2517
 7959TIP3   OH250799   8.533   8.439   0.603 -0.0990  0.2660 -0.1119
 7959TIP3    H150800   0.082   8.484   0.614  0.1790  0.3239 -2.0191
 7959TIP3    H250801   8.470   8.492   0.651  0.6196  1.4033 -0.3811
 7960TIP3   OH250802   0.852   2.732   5.911  0.4389  0.0949  0.2589
 7960TIP3    H150803   0.816   2.785   5.983  2.8442 -1.4354  2.7861
 7960TIP3    H250804   0.934   2.776   5.888  0.9063 -0.7881  0.2102
 7961TIP3   OH250805   7.639   5.911   5.489 -0.5246  0.9726 -0.4519
 7961TIP3    H150806   7.627   5.816   5.494 -0.5521  1.0427  2.4639
 7961TIP3    H250807   7.554   5.943   5.458 -0.4421  0.0742 -1.7045
 7962TIP3   OH250808   7.274   8.144   0.290 -0.0026  0.2660  0.2121
 7962TIP3    H150809   7.253   8.062   0.245 -0.1552 -0.2105  1.1107
 7962TIP3    H250810   7.296   8.205   0.221  1.7153 -0.9824 -0.4230
 7963TIP3   OH250811   1.103   6.435   5.371  0.1839  0.7336 -0.1011
 7963TIP3    H150812   1.020   6.388   5.363 -0.0278  0.9693  0.6225
 7963TIP3    H250813   1.169   6.369   5.350 -0.1905  0.6290 -1.0179
 7964TIP3   OH250814   2.414   5.048   6.566 -0.2792 -0.3195 -1.0621
 7964TIP3    H150815   2.420   5.098   6.648 -1.3404 -0.9808 -0.5724
 7964TIP3    H250816   2.487   5.081   6.513 -0.1463  0.7875 -0.2224
 7965TIP3   OH250817   0.765   1.022   5.062  0.0400  0.5116  0.4356
 7965TIP3    H150818   0.817   0.956   5.107 -0.7068 -0.7772 -0.5353
 7965TIP3    H250819   0.705   1.055   5.129  0.2073 -0.0338  0.8586
 7966TIP3   OH250820   4.177   1.589   6.957  0.6548  0.1858  0.1833
 7966TIP3    H150821   4.120   1.568   6.883  0.3478  1.3757  0.0499
 7966TIP3    H250822   4.260   1.549   6.936  1.0337  1.7498 -1.5869
 7967TIP3   OH250823   0.355   5.156   5.682 -0.4409 -0.2928 -0.5519
 7967TIP3    H150824   0.263   5.177   5.667 -0.9030 -1.4650  0.4066
 7967TIP3    H250825   0.391   5.140   5.594 -1.2134 -0.0447 -0.9195
 7968TIP3   OH250826   2.155   2.546   0.364  0.1890 -0.4015 -0.0589
 7968TIP3    H150827   2.191   2.472   0.413  1.5463 -1.9684 -3.0838
 7968TIP3    H250828   2.196   2.623   0.403  0.3075 -1.4212  1.9244
 7969TIP3   OH250829   6.203   6.323   6.306 -0.0658 -0.3729 -0.3027
 7969TIP3    H150830   6.179   6.409   6.273 -0.6383  0.7653  2.7516
 7969TIP3    H250831   6.122   6.272   6.301 -0.7164  0.4541  1.1690
 7970TIP3   OH250832   1.128   0.923   1.460  0.4162  0.0480 -0.2392
 7970TIP3    H150833   1.163   1.012   1.451  1.2791 -0.2767 -0.1927
 7970TIP3    H250834   1.088   0.921   1.547  1.0926  0.1610  0.0785
 7971TIP3   OH250835   7.196   4.061   0.837 -0.1324 -0.0827 -0.0405
 7971TIP3    H150836   7.215   4.154   0.832 -0.4456 -0.0958 -1.8731
 7971TIP3    H250837   7.222   4.036   0.926 -0.1811  1.7619  0.5190
 7972TIP3   OH250838   4.088   0.238   6.558 -0.3138 -0.4719 -0.1460
 7972TIP3    H150839   4.183   0.226   6.567 -0.4357 -1.6557 -0.3107
 7972TIP3    H250840   4.059   0.163   6.506 -1.0143  1.1055 -2.1998
 7973TIP3   OH250841   1.140   8.135   0.321 -0.2968  0.5113 -0.2717
 7973TIP3    H150842   1.067   8.101   0.372  0.0473  0.5998  0.2791
 7973TIP3    H250843   1.099   8.181   0.248 -0.9326  3.7459  1.9244
 7974TIP3   OH250844   0.094   5.245   5.651  0.0632 -0.3192  0.5455
 7974TIP3    H150845   0.059   5.203   5.730 -1.5903  1.1200  0.6600
 7974TIP3    H250846   0.027   5.230   5.584  0.1153  0.8490  0.2053
 7975TIP3   OH250847   6.261   8.006   1.278  0.4015 -0.5801  0.2864
 7975TIP3    H150848   6.320   7.995   1.353  0.2298  0.4676  0.5867
 7975TIP3    H250849   6.197   8.071   1.306  0.4961  0.0480 -0.8562
 7976TIP3   OH250850   0.646   2.659   0.803 -0.7254 -0.0873  0.2203
 7976TIP3    H150851   0.598   2.736   0.773 -1.0054 -0.7538 -1.1433
 7976TIP3    H250852   0.686   2.623   0.724  2.0173  0.4012  1.2966
 7977TIP3   OH250853   0.861   5.994   1.304  0.5080 -0.1975  0.2330
 7977TIP3    H150854   0.906   6.069   1.344 -2.5326  1.8373  0.1734
 7977TIP3    H250855   0.917   5.919   1.324  2.4157  1.6778  2.6125
 7978TIP3   OH250856   4.926   5.670   1.564  0.5123 -0.3343 -0.0890
 7978TIP3    H150857   4.878   5.741   1.522 -0.5196 -1.2307 -0.4798
 7978TIP3    H250858   4.910   5.682   1.658 -0.6574 -0.7268 -0.2249
 7979TIP3   OH250859   4.825   4.185   0.558  0.0175  0.0654  0.2226
 7979TIP3    H150860   4.915   4.203   0.584 -0.4267  1.4167  0.9254
 7979TIP3    H250861   4.791   4.127   0.626  0.2793 -0.2433  0.0911
 7980TIP3   OH250862   5.054   4.201   0.950  0.1387  0.2146 -0.0644
 7980TIP3    H150863   5.142   4.237   0.966  0.2260 -0.9304  2.4450
 7980TIP3    H250864   4.995   4.270   0.981  0.2379 -0.1593  1.0019
 7981TIP3   OH250865   0.758   6.535   0.417  0.0257  0.6056  0.4505
 7981TIP3    H150866   0.756   6.538   0.321  0.1509  1.5447  0.4649
 7981TIP3    H250867   0.744   6.443   0.438  1.1929  0.1848 -0.4897
 7982TIP3   OH250868   1.096   2.718   0.144  0.5319 -0.4839  0.1776
 7982TIP3    H150869   1.173   2.699   0.092  1.2365  1.1194  0.5716
 7982TIP3    H250870   1.111   2.673   0.227  0.0849 -1.8380 -0.4652
 7983TIP3   OH250871   2.223   0.518   6.819 -0.0965 -0.5900 -0.4539
 7983TIP3    H150872   2.220   0.442   6.877  2.7762  2.0439  3.6615
 7983TIP3    H250873   2.161   0.580   6.857  1.6942  1.1304 -0.2060
 7984TIP3   OH250874   2.600   8.283   1.204  0.8763  0.2111  0.8210
 7984TIP3    H150875   2.682   8.333   1.204  1.1119 -0.1404  2.1886
 7984TIP3    H250876   2.551   8.317   1.279  0.2225 -0.3192  0.6436
 7985TIP3   OH250877   3.752   1.516   6.533 -0.2255  0.4174  0.1563
 7985TIP3    H150878   3.698   1.571   6.476 -1.6323 -0.2432  0.8096
 7985TIP3    H250879   3.778   1.573   6.605  0.0142  0.7616 -0.2035
 7986TIP3   OH250880   8.210   8.381   0.890  0.2590 -0.0235  0.0468
 7986TIP3    H150881   8.304   8.364   0.899  0.2226  0.2784  1.2088
 7986TIP3    H250882   8.192   8.369   0.797  1.8704  1.9917 -0.6005
 7987TIP3   OH250883   5.420   1.258   1.064  0.2627  0.2706  0.8835
 7987TIP3    H150884   5.338   1.248   1.112 -0.5148 -0.7071 -0.5991
 7987TIP3    H250885   5.430   1.353   1.055  1.0453  0.5886  3.9037
 7988TIP3   OH250886   6.321   2.411   6.817 -0.0349  0.2538  0.2249
 7988TIP3    H150887   6.351   2.502   6.818  3.3037 -0.7212  1.0411
 7988TIP3    H250888   6.282   2.399   6.904  0.9390  0.5173  0.7132
 7989TIP3   OH250889   1.623   5.862   5.718  0.3244 -0.7988 -0.2682
 7989TIP3    H150890   1.674   5.903   5.648  0.8969 -0.7835  0.1504
 7989TIP3    H250891   1.540   5.908   5.718  1.7391  2.0685  1.7401
 7990TIP3   OH250892   4.352   6.554   0.239 -0.4075  0.3879 -0.2706
 7990TIP3    H150893   4.402   6.575   0.319 -0.7748 -1.6163  0.5350
 7990TIP3    H250894   4.327   6.462   0.250  0.7339 -0.4028 -3.3527
 7991TIP3   OH250895   3.377   7.815   1.138 -0.3540  0.0321 -0.7441
 7991TIP3    H150896   3.430   7.894   1.129  0.3313 -0.5084 -1.7534
 7991TIP3    H250897   3.440   7.747   1.163 -1.0897 -0.0238  1.1032
 7992TIP3   OH250898   8.287   7.335   5.456  0.4530  0.1463  0.5185
 7992TIP3    H150899   8.214   7.397   5.460 -0.0828 -0.4069 -0.3689
 7992TIP3    H250900   8.345   7.372   5.389  1.8798  1.4872  2.4002
 7993TIP3   OH250901   1.400   7.596   0.331  0.3493  1.1584  0.6978
 7993TIP3    H150902   1.479   7.647   0.316  0.4892  0.3536 -1.6544
 7993TIP3    H250903   1.431   7.511   0.361  0.6861 -0.0322 -2.5705
 7994TIP3   OH250904   1.140   1.748   0.326 -0.0087  0.0108  0.1216
 7994TIP3    H150905   1.103   1.697   0.399 -0.4379 -0.0992 -0.1668
 7994TIP3    H250906   1.103   1.708   0.248  1.5800 -0.7943 -0.2526
 7995TIP3   OH250907   2.799   4.387   5.920  0.3859 -0.6434 -0.8408
 7995TIP3    H150908   2.883   4.342   5.925  1.1247  0.7474 -0.0381
 7995TIP3    H250909   2.817   4.465   5.867 -0.2481 -0.0440 -0.1840
 7996TIP3   OH250910   8.429   7.342   6.556  0.4182  0.2167 -0.0779
 7996TIP3    H150911   8.482   7.412   6.594 -0.2380  0.8512 -0.3147
 7996TIP3    H250912   8.409   7.284   6.629  1.7940 -0.2737 -0.0582
 7997TIP3   OH250913   2.298   0.724   5.500  0.2055 -0.4292 -0.0646
 7997TIP3    H150914   2.345   0.755   5.422  2.0811  1.1182  1.5972
 7997TIP3    H250915   2.242   0.798   5.524 -0.5044 -0.9745 -0.0298
 7998TIP3   OH250916   2.385   2.763   0.282 -0.1583 -0.0224 -0.2092
 7998TIP3    H150917   2.447   2.773   0.209  1.0104  1.4446  0.9104
 7998TIP3    H250918   2.348   2.850   0.293 -0.5315 -0.2953  0.7629
 7999TIP3   OH250919   3.775   8.195   5.590  0.3040  0.0483  0.4950
 7999TIP3    H150920   3.838   8.222   5.523 -0.7227  2.1862  0.2847
 7999TIP3    H250921   3.749   8.277   5.632 -2.7727 -0.6248  0.1407
 8000TIP3   OH250922   0.847   8.195   1.678 -0.5733  0.3947 -0.8077
 8000TIP3    H150923   0.831   8.103   1.658 -1.1778  0.3745 -0.2728
 8000TIP3    H250924   0.819   8.242   1.600  0.0702  0.0987 -1.2181
 8001TIP3   OH250925   7.385   1.769   1.042  0.1470 -0.0276  0.3627
 8001TIP3    H150926   7.351   1.706   0.979  0.8630  1.4715 -1.6137
 8001TIP3    H250927   7.465   1.729   1.075  0.0168 -0.6294 -0.0318
 8002TIP3   OH250928   3.330   1.024   0.687 -0.0555  0.2613  0.0775
 8002TIP3    H150929   3.386   1.010   0.763 -0.4777 -0.4118  0.2751
 8002TIP3    H250930   3.259   0.961   0.698  1.5363 -2.2739 -2.5042
 8003TIP3   OH250931   7.703   0.520   6.294 -0.0335  0.2271  0.0936
 8003TIP3    H150932   7.671   0.587   6.233 -3.0579  0.5008  1.8081
 8003TIP3    H250933   7.729   0.568   6.372 -0.2881 -0.4505  0.6037
 8004TIP3   OH250934   5.333   8.117   0.551  0.1803  0.7482 -0.5166
 8004TIP3    H150935   5.405   8.149   0.606 -0.6821  0.5594  0.7611
 8004TIP3    H250936   5.307   8.194   0.500  0.0937  1.3248  0.3562
 8005TIP3   OH250937   8.148   0.698   1.344 -0.2423 -0.0919 -0.2189
 8005TIP3    H150938   8.084   0.629   1.364 -1.3380  1.4478  2.1820
 8005TIP3    H250939   8.211   0.693   1.416 -0.3530  1.3866 -0.0002
 8006TIP3   OH250940   2.208   7.684   6.311  0.1407  0.2890  0.1788
 8006TIP3    H150941   2.283   7.633   6.278 -0.2037 -0.1066 -0.0072
 8006TIP3    H250942   2.137   7.663   6.251 -0.4191 -0.2049  0.9898
 8007TIP3   OH250943   1.573   1.571   1.034 -0.7300 -0.2208 -0.0327
 8007TIP3    H150944   1.617   1.655   1.020 -0.1636 -0.4255  0.4628
 8007TIP3    H250945   1.634   1.506   0.997 -0.3396 -0.5516  1.1451
 8008TIP3   OH250946   7.318   2.898   5.589 -0.0484 -0.2793 -0.1417
 8008TIP3    H150947   7.243   2.915   5.532 -2.2737 -3.4102  1.5267
 8008TIP3    H250948   7.335   2.982   5.631 -1.5545  0.9224 -1.7853
 8009TIP3   OH250949   5.790   7.954   6.746  0.1273  0.4215 -0.3594
 8009TIP3    H150950   5.791   8.039   6.791  0.4152  0.0881  0.2650
 8009TIP3    H250951   5.794   7.889   6.816 -0.5578 -0.1200 -0.8103
 8010TIP3   OH250952   2.251   7.781   0.984 -0.3599  0.2644 -0.1352
 8010TIP3    H150953   2.214   7.821   0.905  0.3580  1.2504  0.0189
 8010TIP3    H250954   2.283   7.695   0.954  1.7483  1.4163 -1.4274
 8011TIP3   OH250955   7.716   5.056   0.823  0.7205  0.7501  0.2329
 8011TIP3    H150956   7.770   5.014   0.891 -0.9289  1.1382  1.8499
 8011TIP3    H250957   7.647   5.102   0.872 -1.0826  0.2849 -1.7551
 8012TIP3   OH250958   0.217   7.863   5.663  0.8925 -0.6801 -0.0739
 8012TIP3    H150959   0.255   7.918   5.733 -0.6805 -0.2650  0.5001
 8012TIP3    H250960   0.230   7.914   5.583  0.1594  0.1906  0.3429
 8013TIP3   OH250961   7.267   2.069   6.201  0.7050 -0.4212 -0.2449
 8013TIP3    H150962   7.236   2.150   6.160  0.9241 -0.4321 -0.4362
 8013TIP3    H250963   7.208   2.002   6.168 -0.8400 -0.0311  1.5924
 8014TIP3   OH250964   7.458   5.297   1.828 -0.2321 -0.3698 -0.3967
 8014TIP3    H150965   7.522   5.353   1.871 -1.6466  1.9671 -1.0959
 8014TIP3    H250966   7.383   5.295   1.887 -0.2718 -1.4246 -0.4626
 8015TIP3   OH250967   0.958   3.905   0.151 -0.5359  0.7173  0.2026
 8015TIP3    H150968   1.053   3.894   0.157 -0.3750 -1.3205 -3.2996
 8015TIP3    H250969   0.946   3.982   0.096 -0.6930 -0.6876 -1.8639
 8016TIP3   OH250970   7.220   6.069   0.380 -0.6565 -0.1168 -0.4918
 8016TIP3    H150971   7.200   6.104   0.466  1.0962  1.3550 -0.6284
 8016TIP3    H250972   7.139   6.081   0.330 -0.7378  1.9315  0.0643
 8017TIP3   OH250973   1.623   5.713   0.338 -0.2713 -0.7310 -0.4224
 8017TIP3    H150974   1.556   5.647   0.323  1.5299 -2.4997 -1.1554
 8017TIP3    H250975   1.600   5.752   0.422 -1.5020 -2.1470 -0.0589
 8018TIP3   OH250976   8.247   1.052   6.657  0.3111 -0.2465  0.2159
 8018TIP3    H150977   8.156   1.056   6.627 -0.1813 -1.0823  1.4746
 8018TIP3    H250978   8.289   1.128   6.618 -0.5378 -0.6648 -1.6011
 8019TIP3   OH250979   5.242   3.942   6.586  0.3072 -0.7442 -0.7897
 8019TIP3    H150980   5.247   3.847   6.578  0.3408 -1.0025  1.7597
 8019TIP3    H250981   5.151   3.963   6.564  0.8772 -0.9694 -3.9310
 8020TIP3   OH250982   3.326   4.957   6.715  0.7352 -0.1888 -0.1884
 8020TIP3    H150983   3.286   4.894   6.655 -1.0721  1.4578 -0.7800
 8020TIP3    H250984   3.344   4.906   6.794  0.8660 -1.8113 -1.2058
 8021TIP3   OH250985   1.647   7.301   5.575 -0.3426  0.2601 -0.1229
 8021TIP3    H150986   1.732   7.257   5.579 -0.1836  0.4580 -1.2203
 8021TIP3    H250987   1.601   7.258   5.503 -0.4287  1.4658 -0.8032
 8022TIP3   OH250988   1.901   8.329   0.106  0.5461 -0.0084 -0.1538
 8022TIP3    H150989   1.936   8.241   0.090  0.9412  0.3031 -1.0742
 8022TIP3    H250990   1.967   8.371   0.163  0.9824  0.1034 -0.7331
 8023TIP3   OH250991   2.243   1.487   5.952 -0.0202 -0.7024 -0.0789
 8023TIP3    H150992   2.207   1.508   6.038 -0.1479 -2.0384  0.2245
 8023TIP3    H250993   2.186   1.533   5.890 -0.1744 -0.0589  0.5354
 8024TIP3   OH250994   4.988   6.797   1.901 -0.0215  0.4200  0.1277
 8024TIP3    H150995   4.952   6.843   1.825  0.6367  0.4807 -0.1580
 8024TIP3    H250996   5.080   6.825   1.904  0.2192 -0.3653  0.3359
 8025TIP3   OH250997   2.275   1.986   4.960  0.4288  0.3156  0.3362
 8025TIP3    H150998   2.190   2.019   4.933 -0.1656  0.1736  1.9614
 8025TIP3    H250999   2.328   1.988   4.880 -0.5193  2.1922 -0.3004
 8026TIP3   OH251000   2.338   6.742   6.915 -0.7547  0.3228  0.1837
 8026TIP3    H151001   2.376   6.809   6.972  0.0226 -0.0006  0.0471
 8026TIP3    H251002   2.382   6.661   6.939 -1.3356 -0.0569 -0.0011
 8027TIP3   OH251003   3.444   0.757   1.098  0.2352  0.5563  0.4567
 8027TIP3    H151004   3.451   0.818   1.172  0.1271 -0.2589  1.1615
 8027TIP3    H251005   3.474   0.673   1.134 -0.3428  0.0214 -0.2809
 8028TIP3   OH251006   7.609   5.797   0.362 -0.6649  0.0771  0.3108
 8028TIP3    H151007   7.523   5.755   0.359  0.4180 -2.2394 -0.5549
 8028TIP3    H251008   7.627   5.810   0.456 -0.8644 -1.8789  0.6486
 8029TIP3   OH251009   6.244   7.134   0.741  0.1813  0.7940  0.5669
 8029TIP3    H151010   6.150   7.140   0.760 -0.2814 -0.3540 -1.0629
 8029TIP3    H251011   6.267   7.219   0.705 -1.6752 -0.4005 -4.3087
 8030TIP3   OH251012   4.082   5.604   0.382  0.2458 -0.2386  0.8881
 8030TIP3    H151013   4.108   5.686   0.426 -1.4770  1.2211 -0.6203
 8030TIP3    H251014   3.988   5.616   0.365  0.2722 -1.9270 -0.6511
 8031TIP3   OH251015   7.418   1.186   0.549  0.8427 -0.3423 -0.3212
 8031TIP3    H151016   7.416   1.094   0.576 -1.1544 -0.5858 -1.0909
 8031TIP3    H251017   7.352   1.191   0.479 -0.3680  2.0207  0.8817
 8032TIP3   OH251018   1.415   7.970   6.194 -0.2340 -0.4199 -0.4661
 8032TIP3    H151019   1.479   7.900   6.182 -0.3322 -0.6496  0.3131
 8032TIP3    H251020   1.455   8.029   6.258 -0.8731 -0.6709  0.1831
 8033TIP3   OH251021   6.600   3.230   6.295 -0.2946  0.5822  0.3614
 8033TIP3    H151022   6.598   3.300   6.361 -2.4951 -0.4959  1.5374
 8033TIP3    H251023   6.658   3.164   6.333  0.0075  0.7961  0.2805
 8034TIP3   OH251024   0.365   6.839   1.676 -0.1081  0.1592  0.1948
 8034TIP3    H151025   0.307   6.856   1.750 -0.8919  1.6384 -0.7026
 8034TIP3    H251026   0.441   6.894   1.691  0.4395 -0.6865  0.6338
 8035TIP3   OH251027   6.075   0.022   6.296  0.0395  0.4983 -0.3533
 8035TIP3    H151028   6.038   0.072   6.222  0.2589 -1.7828 -2.1041
 8035TIP3    H251029   6.137   0.083   6.337 -1.8122  2.6382 -0.5241
 8036TIP3   OH251030   6.520   3.512   0.398 -0.5109 -0.4856  0.0042
 8036TIP3    H151031   6.484   3.424   0.407 -0.4217 -0.6588 -1.1272
 8036TIP3    H251032   6.451   3.562   0.354 -1.5466  0.7063  2.7913
 8037TIP3   OH251033   5.580   3.629   0.355  1.2356 -0.2455  0.0459
 8037TIP3    H151034   5.552   3.720   0.362  0.0602 -0.5427 -0.6543
 8037TIP3    H251035   5.569   3.607   0.263 -1.0998 -1.8891  0.6422
 8038TIP3   OH251036   6.871   4.096   0.723 -0.5660 -0.1530  0.2314
 8038TIP3    H151037   6.909   4.026   0.777 -0.0580  0.1342  0.2428
 8038TIP3    H251038   6.945   4.137   0.679 -0.7548  0.9646  0.9136
 8039TIP3   OH251039   1.471   1.617   6.386 -0.6657  0.7079  0.6296
 8039TIP3    H151040   1.438   1.608   6.296 -0.8110  0.4168  0.7100
 8039TIP3    H251041   1.541   1.552   6.392 -2.7868 -1.6294  1.7170
 8040TIP3   OH251042   5.648   3.359   6.673 -0.0995 -0.5451  0.6703
 8040TIP3    H151043   5.725   3.371   6.730 -1.1034  0.9431  1.7905
 8040TIP3    H251044   5.671   3.402   6.591 -0.2887  1.3283  1.5550
 8041TIP3   OH251045   5.075   6.520   0.571  0.0967  0.0568 -0.2330
 8041TIP3    H151046   5.062   6.438   0.618 -1.3296 -0.8032 -2.0109
 8041TIP3    H251047   5.041   6.503   0.483  0.5646  2.2965 -0.9080
 8042TIP3   OH251048   6.528   7.648   0.727 -0.5126  0.2657  0.1942
 8042TIP3    H151049   6.569   7.585   0.668 -1.6560 -0.0318 -0.3082
 8042TIP3    H251050   6.487   7.712   0.669 -2.8484 -0.7818  0.5724
 8043TIP3   OH251051   5.890   0.079   0.492  0.0404 -0.3261  0.0459
 8043TIP3    H151052   5.940   0.078   0.410  1.8139  0.6245  1.0507
 8043TIP3    H251053   5.798   0.086   0.465  0.5376 -0.7182 -1.8536
 8044TIP3   OH251054   7.827   1.962   6.965 -0.1122  0.1257 -0.2897
 8044TIP3    H151055   7.921   1.963   6.984 -0.6793 -0.1540  3.2484
 8044TIP3    H251056   7.796   1.878   6.999 -1.9736  1.2797  1.0792
 8045TIP3   OH251057   2.216   6.466   5.622  0.0886 -0.1447  0.0089
 8045TIP3    H151058   2.238   6.528   5.553 -0.8504 -0.5623 -0.6867
 8045TIP3    H251059   2.265   6.497   5.698  1.4581  0.0889 -0.9358
 8046TIP3   OH251060   2.148   2.403   5.961  0.3261  0.3888 -0.4571
 8046TIP3    H151061   2.146   2.308   5.968 -2.3487  0.3262 -0.8580
 8046TIP3    H251062   2.182   2.433   6.045  1.0033 -0.8895 -0.2530
 8047TIP3   OH251063   6.337   1.655   6.939  0.3550 -0.3427 -0.5076
 8047TIP3    H151064   6.364   1.747   6.934  1.5371 -0.7287 -2.0016
 8047TIP3    H251065   6.268   1.646   6.873 -1.2321 -0.0993  1.0591
 8048TIP3   OH251066   7.055   3.246   1.123 -0.4781 -0.6379 -0.2990
 8048TIP3    H151067   7.094   3.324   1.083 -0.2148  0.7856  2.4561
 8048TIP3    H251068   7.007   3.203   1.052  1.3136  0.7289 -2.4529
 8049TIP3   OH251069   0.293   8.327   1.214  0.3655  0.2055  0.1793
 8049TIP3    H151070   0.281   8.272   1.292  1.9871 -1.6127 -0.7770
 8049TIP3    H251071   0.323   8.411   1.248 -0.9862  0.1507  1.6200
 8050TIP3   OH251072   1.447   2.558   0.159 -0.0155 -0.0547  0.3192
 8050TIP3    H151073   1.535   2.592   0.172 -0.2588  0.1880  1.5149
 8050TIP3    H251074   1.459   2.468   0.130  0.6339  0.7159 -2.0346
 8051TIP3   OH251075   7.665   1.828   1.383  0.5559 -0.3775 -0.8120
 8051TIP3    H151076   7.701   1.783   1.460  0.1603  0.6973  0.0228
 8051TIP3    H251077   7.678   1.921   1.401 -1.3358 -0.0181 -1.1260
 8052TIP3   OH251078   3.386   7.640   0.018 -0.2273 -0.6904  0.0819
 8052TIP3    H151079   3.367   7.645   0.112  0.4914 -0.2305  0.2078
 8052TIP3    H251080   3.404   7.730   7.063 -0.1206 -0.8588 -0.4370
 8053TIP3   OH251081   1.722   4.336   1.052 -0.1025 -0.0463  0.7449
 8053TIP3    H151082   1.672   4.407   1.092 -0.4733  0.5067 -0.6328
 8053TIP3    H251083   1.663   4.299   0.986  0.1337 -1.5597  1.3237
 8054TIP3   OH251084   3.205   6.023   1.125  0.0146 -0.1765  0.6508
 8054TIP3    H151085   3.281   6.062   1.081  0.4017  0.4928  1.8802
 8054TIP3    H251086   3.242   5.951   1.176 -0.1810  0.1338  1.2331
 8055TIP3   OH251087   4.333   4.748   5.156  0.5751 -0.1527  0.6527
 8055TIP3    H151088   4.262   4.794   5.112  0.7446  0.2591  0.7993
 8055TIP3    H251089   4.342   4.794   5.240 -0.4888 -1.6168  1.6076
 8056TIP3   OH251090   4.354   3.401   0.506 -0.0661 -0.0332 -0.0278
 8056TIP3    H151091   4.276   3.456   0.498 -0.4878 -0.4449  1.1521
 8056TIP3    H251092   4.324   3.322   0.550  0.6252 -1.0592 -1.3149
 8057TIP3   OH251093   1.742   8.061   6.373  0.1697  0.4761  0.2595
 8057TIP3    H151094   1.806   8.003   6.332  0.5952  0.1329  1.3596
 8057TIP3    H251095   1.750   8.144   6.327  2.5625  0.9496  1.3645
 8058TIP3   OH251096   4.712   1.342   5.283  0.3950 -0.3874 -0.5955
 8058TIP3    H151097   4.632   1.388   5.310  0.3543 -0.2190 -0.9961
 8058TIP3    H251098   4.682   1.277   5.219  0.4629 -0.9192 -0.0905
 8059TIP3   OH251099   5.905   0.430   1.099  0.4842 -0.2260 -0.1261
 8059TIP3    H151100   5.879   0.339   1.110 -1.2517  0.4162  1.7976
 8059TIP3    H251101   5.942   0.434   1.011 -1.2044 -2.3740 -1.0313
 8060TIP3   OH251102   8.209   2.817   0.067  0.1689 -0.3979 -0.2145
 8060TIP3    H151103   8.218   2.848   7.048 -1.2183 -0.4334 -0.3884
 8060TIP3    H251104   8.118   2.786   0.073 -0.0766  0.5283  1.4830
 8061TIP3   OH251105   1.322   4.056   5.610  0.6833  0.1435  0.0474
 8061TIP3    H151106   1.300   3.974   5.567 -2.5045  0.8538  0.0941
 8061TIP3    H251107   1.362   4.109   5.542  1.8310 -1.0441 -0.2427
 8062TIP3   OH251108   0.658   6.316   5.875 -0.1590  0.0070 -0.2479
 8062TIP3    H151109   0.591   6.372   5.835 -0.5761 -0.5239 -0.3064
 8062TIP3    H251110   0.652   6.234   5.827 -1.6623 -1.1611  1.7985
 8063TIP3   OH251111   2.054   4.426   5.824 -0.2484  0.0826 -0.3512
 8063TIP3    H151112   1.996   4.432   5.748 -0.5988  1.0682 -0.0230
 8063TIP3    H251113   2.128   4.372   5.794  0.2418  1.4865 -1.8060
 8064TIP3   OH251114   6.883   1.559   0.956  0.1781  0.0514 -1.0997
 8064TIP3    H151115   6.956   1.621   0.962  1.5331 -1.6150  0.7895
 8064TIP3    H251116   6.921   1.482   0.913 -0.3349 -0.9746  0.2285
 8065TIP3   OH251117   7.636   3.457   1.712 -0.0345 -0.2237 -0.3413
 8065TIP3    H151118   7.698   3.509   1.661 -0.6291 -0.5313 -1.4055
 8065TIP3    H251119   7.565   3.438   1.651  0.4863 -2.9034 -0.2033
 8066TIP3   OH251120   2.737   3.728   6.602 -0.1662 -0.1755  0.3296
 8066TIP3    H151121   2.723   3.673   6.525  0.7121 -0.1576  0.1449
 8066TIP3    H251122   2.799   3.679   6.656  1.5061  1.1077 -0.3594
 8067TIP3   OH251123   5.013   3.015   5.894 -0.1852  0.0834 -0.4085
 8067TIP3    H151124   5.048   3.103   5.909 -1.8269  0.3101  3.1151
 8067TIP3    H251125   4.943   3.027   5.831 -0.1872  1.2793 -0.2017
 8068TIP3   OH251126   5.352   3.328   0.466 -0.0222  0.2248 -0.2404
 8068TIP3    H151127   5.324   3.335   0.375  0.8179 -1.0767 -0.6261
 8068TIP3    H251128   5.432   3.275   0.463  0.0568  0.2059  1.2481
 8069TIP3   OH251129   0.444   7.194   6.906  0.2155  0.1407 -0.4537
 8069TIP3    H151130   0.461   7.243   6.825  2.2923 -1.1322 -0.8596
 8069TIP3    H251131   0.359   7.154   6.892  0.3862  0.2162 -1.8930
 8070TIP3   OH251132   8.247   5.054   0.639  0.4257 -0.2847 -0.4045
 8070TIP3    H151133   8.315   4.988   0.652  0.1610 -0.7729 -1.4038
 8070TIP3    H251134   8.178   5.009   0.591  0.0202  0.5883 -0.6712
 8071TIP3   OH251135   3.275   8.303   1.582  0.0893  0.4670 -0.5488
 8071TIP3    H151136   3.212   8.362   1.540 -0.4608  0.2867  0.0063
 8071TIP3    H251137   3.335   8.362   1.629  1.4118  0.7480 -2.4592
 8072TIP3   OH251138   4.240   5.087   6.484 -0.0030  0.1236 -0.3292
 8072TIP3    H151139   4.268   5.148   6.552  0.5753 -1.5197  0.9656
 8072TIP3    H251140   4.308   5.094   6.417  0.7164  0.0029  0.3746
 8073TIP3   OH251141   2.538   2.561   0.380 -0.0957 -0.2565  0.2881
 8073TIP3    H151142   2.479   2.622   0.334  0.3927  0.1430  0.1824
 8073TIP3    H251143   2.556   2.492   0.316  1.1797  0.6825 -0.4132
 8074TIP3   OH251144   1.219   3.469   1.384 -0.0584 -0.3264 -0.1905
 8074TIP3    H151145   1.164   3.543   1.355  0.1606 -0.8934 -2.1985
 8074TIP3    H251146   1.164   3.422   1.447 -1.5188 -0.3123 -1.3917
 8075TIP3   OH251147   5.459   1.898   6.252  1.0753  0.6496  0.4082
 8075TIP3    H151148   5.513   1.849   6.314  2.3904  1.6150  0.0804
 8075TIP3    H251149   5.517   1.914   6.177 -0.3088 -0.0437 -0.8664
 8076TIP3   OH251150   6.955   3.703   5.741  0.5432 -0.1339  0.0811
 8076TIP3    H151151   6.909   3.680   5.821  0.6511 -1.1910 -0.1393
 8076TIP3    H251152   6.998   3.786   5.760 -0.0557  0.0035  0.8557
 8077TIP3   OH251153   0.337   4.347   6.885  0.5201  0.0317  0.2402
 8077TIP3    H151154   0.248   4.371   6.860  0.1592 -0.9923  0.4923
 8077TIP3    H251155   0.381   4.430   6.903 -1.0384  0.4527  2.3349
 8078TIP3   OH251156   4.051   3.170   5.494 -0.2569 -0.3051 -0.4834
 8078TIP3    H151157   3.986   3.142   5.430  0.5900 -1.2825 -0.9326
 8078TIP3    H251158   4.126   3.114   5.479  1.7383  2.5156 -1.7877
 8079TIP3   OH251159   1.952   4.604   4.686  0.2050 -0.3534  0.5163
 8079TIP3    H151160   1.934   4.512   4.706 -0.4581 -1.5058 -4.1092
 8079TIP3    H251161   2.029   4.601   4.629 -0.0467  1.8829 -0.0305
 8080TIP3   OH251162   1.918   5.325   6.778 -0.8504  0.2140  0.7631
 8080TIP3    H151163   1.847   5.374   6.820 -1.4768 -0.6424  0.7305
 8080TIP3    H251164   1.950   5.383   6.709 -0.3856  1.2966  1.8544
 8081TIP3   OH251165   2.102   2.069   6.586 -0.2175  0.1239 -0.3837
 8081TIP3    H151166   2.098   2.161   6.612 -1.8745 -0.2170  0.7676
 8081TIP3    H251167   2.010   2.044   6.573  0.0281 -1.8105  1.0929
 8082TIP3   OH251168   3.751   0.601   0.029 -0.7777  0.3490 -0.0917
 8082TIP3    H151169   3.698   0.671   7.062  0.3363  0.6376 -1.1898
 8082TIP3    H251170   3.777   0.548   7.025 -1.2497 -1.0214  0.6722
 8083TIP3   OH251171   0.739   2.487   5.978  0.1022 -0.2567 -0.4463
 8083TIP3    H151172   0.656   2.505   5.934  0.2437 -0.7556 -0.9186
 8083TIP3    H251173   0.791   2.565   5.962 -0.3946  0.2058  0.1452
 8084TIP3   OH251174   5.624   5.421   1.291  0.4142 -0.1145  0.4063
 8084TIP3    H151175   5.535   5.415   1.258  0.2911  0.1140  0.6900
 8084TIP3    H251176   5.616   5.470   1.372  0.6719 -0.9060  0.9274
 8085TIP3   OH251177   7.159   0.623   1.185 -0.0592  0.2358 -0.4100
 8085TIP3    H151178   7.221   0.677   1.233 -0.1185 -0.4610  0.4783
 8085TIP3    H251179   7.104   0.584   1.253 -1.1874  0.4914 -1.1468
 8086TIP3   OH251180   5.258   6.774   6.821 -0.2292 -0.7803 -0.6244
 8086TIP3    H151181   5.320   6.822   6.766 -2.2427  3.1832  0.2058
 8086TIP3    H251182   5.304   6.763   6.905  0.8118 -1.8954 -1.2862
 8087TIP3   OH251183   5.905   1.386   0.818 -0.0911  0.0311  0.5487
 8087TIP3    H151184   5.814   1.381   0.790  0.1687  0.2930 -0.3885
 8087TIP3    H251185   5.928   1.478   0.809  0.0701  0.0890  1.4584
 8088TIP3   OH251186   7.024   6.695   4.818  0.1480 -0.4427 -0.3600
 8088TIP3    H151187   7.119   6.686   4.820  0.2515  0.4019 -0.8601
 8088TIP3    H251188   6.993   6.614   4.778  0.6941 -0.5078 -0.6639
 8089TIP3   OH251189   1.795   6.564   6.874 -0.4597 -0.3477 -0.8103
 8089TIP3    H151190   1.758   6.639   6.827  0.5496  0.7618  0.0790
 8089TIP3    H251191   1.846   6.517   6.808  1.0759  1.2732 -0.8532
 8090TIP3   OH251192   7.977   6.076   0.588  0.2012 -0.3253 -0.7154
 8090TIP3    H151193   7.896   6.074   0.640  0.5748 -0.6089 -0.1316
 8090TIP3    H251194   7.991   6.169   0.570  0.3848 -0.1640  0.2175
 8091TIP3   OH251195   3.509   8.145   6.194 -0.4264  0.0001  0.0057
 8091TIP3    H151196   3.526   8.120   6.284 -0.7366 -0.2265  0.0043
 8091TIP3    H251197   3.441   8.084   6.165 -1.0071  0.6737 -0.0798
 8092TIP3   OH251198   5.939   2.864   6.704 -0.0547  0.3581  0.7683
 8092TIP3    H151199   5.879   2.892   6.773  1.5416 -0.3836  2.5728
 8092TIP3    H251200   5.993   2.941   6.687 -0.2902  0.4708  0.5380
 8093TIP3   OH251201   1.144   5.678   1.935  0.1311 -0.6116 -0.3015
 8093TIP3    H151202   1.095   5.597   1.919  2.1326 -1.6076 -1.7940
 8093TIP3    H251203   1.214   5.651   1.994  1.5825 -0.2940 -1.8282
 8094TIP3   OH251204   1.639   3.897   6.521  0.1643  0.1644  0.5409
 8094TIP3    H151205   1.727   3.875   6.553 -0.0436  2.0467  2.7175
 8094TIP3    H251206   1.586   3.821   6.542  1.0528 -0.5752  0.1768
 8095TIP3   OH251207   4.882   6.780   5.850 -0.4771  0.2158  0.2195
 8095TIP3    H151208   4.847   6.827   5.926 -0.2776 -0.3085  0.6472
 8095TIP3    H251209   4.909   6.696   5.886  0.8595  0.4633 -0.1779
 8096TIP3   OH251210   6.711   4.583   1.005 -0.0363  0.1806 -0.1765
 8096TIP3    H151211   6.622   4.611   1.028  0.8861  4.2924 -0.6849
 8096TIP3    H251212   6.763   4.603   1.082  0.8210  0.4029 -0.7994
 8097TIP3   OH251213   2.202   0.436   0.084 -0.4180  0.0285  0.4411
 8097TIP3    H151214   2.189   0.529   0.068  2.6772  0.3889 -0.6436
 8097TIP3    H251215   2.152   0.392   0.016  0.5435  1.0525 -0.9739
 8098TIP3   OH251216   2.294   8.394   6.305 -0.0675 -0.0378 -0.5060
 8098TIP3    H151217   2.253   8.338   6.370  1.5706  0.9067  1.4353
 8098TIP3    H251218   2.376   8.423   6.346  0.0029  2.3347 -2.1213
 8099TIP3   OH251219   8.009   3.334   6.543 -0.2706  0.0650  0.1246
 8099TIP3    H151220   8.006   3.336   6.448  1.0634 -1.2532  0.0232
 8099TIP3    H251221   8.070   3.404   6.566 -1.4214  1.1042  0.0938
 8100TIP3   OH251222   6.435   1.678   1.270 -0.1777  0.2422 -0.2158
 8100TIP3    H151223   6.343   1.669   1.243 -0.2155 -1.3441  0.3550
 8100TIP3    H251224   6.444   1.771   1.291 -2.2172  0.1114  1.6364
 8101TIP3   OH251225   7.337   2.674   6.806 -0.4032  0.0942 -0.1577
 8101TIP3    H151226   7.252   2.704   6.837 -0.5707 -0.8804  0.3604
 8101TIP3    H251227   7.400   2.732   6.849 -0.6646 -0.8383  1.5605
 8102TIP3   OH251228   7.233   3.583   5.877  0.0572  0.1782  0.2489
 8102TIP3    H151229   7.209   3.668   5.914  0.9991  0.4937  0.1448
 8102TIP3    H251230   7.217   3.521   5.948  1.5772  0.7448  1.1287
 8103TIP3   OH251231   5.999   0.616   5.011  0.4456 -0.0193  0.0071
 8103TIP3    H151232   5.956   0.531   5.002  0.7934 -0.1773 -0.1963
 8103TIP3    H251233   6.008   0.628   5.106  2.1230 -1.1154  0.0407
 8104TIP3   OH251234   0.843   7.765   6.863  0.2113  0.2660 -0.1135
 8104TIP3    H151235   0.769   7.710   6.888  1.7296 -1.5637  0.5347
 8104TIP3    H251236   0.908   7.752   6.932  1.8139  0.4939 -1.5023
 8105TIP3   OH251237   2.239   4.156   5.348  0.1230 -0.3377 -0.1969
 8105TIP3    H151238   2.206   4.109   5.271  0.6833 -2.5323  0.8069
 8105TIP3    H251239   2.318   4.107   5.374  0.4024  0.8161  1.3139
 8106TIP3   OH251240   7.102   0.784   5.659  0.0012 -0.5178 -0.4328
 8106TIP3    H151241   7.121   0.875   5.680 -1.1610 -0.0825 -1.1841
 8106TIP3    H251242   7.178   0.755   5.608 -1.1537  1.1577 -3.3345
 8107TIP3   OH251243   0.594   7.382   6.415  0.0192  0.3875  0.0562
 8107TIP3    H151244   0.622   7.291   6.403  2.4669  1.1224 -0.5297
 8107TIP3    H251245   0.613   7.423   6.331 -0.8040  1.5222  0.4068
 8108TIP3   OH251246   1.409   4.508   6.423  0.6417  0.7681  0.3721
 8108TIP3    H151247   1.335   4.556   6.461  0.8098  0.0622  1.6088
 8108TIP3    H251248   1.483   4.569   6.428  0.5401  0.8642  0.6853
 8109TIP3   OH251249   1.596   2.536   5.451 -0.0088 -0.2076  0.5126
 8109TIP3    H151250   1.513   2.579   5.470  0.3252 -0.1928  2.1461
 8109TIP3    H251251   1.603   2.538   5.356 -1.2786  0.9097  0.4031
 8110TIP3   OH251252   1.199   1.355   5.787 -0.4050 -0.1021  0.3482
 8110TIP3    H151253   1.190   1.288   5.719 -0.5336  0.2676 -0.0060
 8110TIP3    H251254   1.247   1.426   5.745 -0.3344  0.0609  0.6964
 8111TIP3   OH251255   8.085   7.721   1.022 -0.6814  0.0536 -0.0985
 8111TIP3    H151256   8.005   7.772   1.034 -2.3031 -2.2396 -0.4982
 8111TIP3    H251257   8.142   7.749   1.093 -2.4196  0.6747  1.1243
 8112TIP3   OH251258   2.478   1.623   5.877 -0.0415 -0.3592 -0.1125
 8112TIP3    H151259   2.465   1.604   5.784 -0.5864 -1.2223  0.1208
 8112TIP3    H251260   2.415   1.566   5.921  1.0685 -0.8809  0.8501
 8113TIP3   OH251261   1.986   5.478   6.551 -0.0819  0.3041  0.6580
 8113TIP3    H151262   2.074   5.443   6.542  0.3179  1.4106 -0.0036
 8113TIP3    H251263   1.946   5.466   6.464 -0.6909 -0.4590  1.0371
 8114TIP3   OH251264   7.160   4.829   0.484 -0.0320  0.4152 -0.2885
 8114TIP3    H151265   7.241   4.780   0.501 -0.4203  0.2376  1.1435
 8114TIP3    H251266   7.125   4.848   0.571 -1.3356  0.8269 -0.8859
 8115TIP3   OH251267   6.906   3.450   0.826  0.0210 -0.0001 -0.1715
 8115TIP3    H151268   6.993   3.490   0.829  1.5792 -3.1391  2.0819
 8115TIP3    H251269   6.854   3.501   0.888  0.6781  0.9257 -0.3476
 8116TIP3   OH251270   3.222   3.163   6.027  0.1062  0.3269 -0.4979
 8116TIP3    H151271   3.278   3.119   6.092 -0.4481  3.0338  2.0189
 8116TIP3    H251272   3.158   3.096   6.002  2.9053 -2.1280 -1.6707
 8117TIP3   OH251273   4.268   3.863   6.860 -0.4152  0.1652 -0.3478
 8117TIP3    H151274   4.239   3.897   6.775 -2.0675 -0.6304 -0.1441
 8117TIP3    H251275   4.327   3.791   6.838  0.9475  1.3798 -0.7855
 8118TIP3   OH251276   0.162   3.362   5.947 -0.8511 -0.1517  0.1582
 8118TIP3    H151277   0.196   3.331   6.031 -0.4232  1.0449  0.4612
 8118TIP3    H251278   0.085   3.414   5.970  0.4724  1.9687  0.0737
 8119TIP3   OH251279   7.494   2.826   0.874  0.1039 -0.2633 -0.4546
 8119TIP3    H151280   7.497   2.897   0.810 -1.2660 -0.6594 -1.0084
 8119TIP3    H251281   7.500   2.746   0.822  0.3048 -0.5800  0.0406
 8120TIP3   OH251282   8.423   1.855   5.815  0.0210  0.4570 -0.0363
 8120TIP3    H151283   8.455   1.923   5.755  0.2737 -0.3999 -0.9068
 8120TIP3    H251284   8.425   1.775   5.762  0.4235 -0.3608  1.1835
 8121TIP3   OH251285   1.459   3.239   6.767 -0.2461 -1.3014 -0.1971
 8121TIP3    H151286   1.449   3.181   6.843 -1.1543 -0.2832  0.5057
 8121TIP3    H251287   1.371   3.270   6.749  0.3665  0.8930  0.3162
 8122TIP3   OH251288   4.189   7.608   5.215 -0.5180 -0.3364  0.5696
 8122TIP3    H151289   4.218   7.613   5.124  0.3758 -0.1976  0.8525
 8122TIP3    H251290   4.171   7.515   5.230  0.6043 -0.5497  0.6283
 8123TIP3   OH251291   1.350   4.467   6.150  0.0853 -0.1357  0.1546
 8123TIP3    H151292   1.312   4.546   6.111  0.9031  1.8125  2.9229
 8123TIP3    H251293   1.328   4.474   6.243  1.8041 -2.2349  0.8065
 8124TIP3   OH251294   8.415   1.676   5.582 -0.3374  0.0756 -0.4371
 8124TIP3    H151295   8.457   1.593   5.604 -1.2636 -0.6295 -1.2404
 8124TIP3    H251296   8.483   1.726   5.538  0.2946 -0.1607  0.2394
 8125TIP3   OH251297   2.639   4.962   1.066 -0.3391  0.2477 -0.2014
 8125TIP3    H151298   2.574   5.011   1.116 -1.9544  0.1355 -2.0772
 8125TIP3    H251299   2.594   4.883   1.038  0.7899 -0.1285 -1.0454
 8126TIP3   OH251300   5.537   4.079   0.595 -0.1064  0.4826  0.3446
 8126TIP3    H151301   5.458   4.111   0.638  0.0268  0.6899  0.4358
 8126TIP3    H251302   5.534   4.119   0.507 -0.4959 -0.1230  0.0750
 8127TIP3   OH251303   1.808   0.634   0.940 -0.0201  0.4151  0.1814
 8127TIP3    H151304   1.806   0.730   0.932 -0.7462  0.2923 -1.4296
 8127TIP3    H251305   1.885   0.617   0.994 -1.2763  2.0069  2.6694
 8128TIP3   OH251306   6.221   8.290   1.625  0.2531 -0.7888  0.8578
 8128TIP3    H151307   6.278   8.283   1.549  0.5608 -1.1021  1.1170
 8128TIP3    H251308   6.136   8.317   1.589 -0.2248 -3.0903  0.1378
 8129TIP3   OH251309   3.453   1.523   6.325 -0.4798  0.2617  0.0342
 8129TIP3    H151310   3.514   1.478   6.267 -0.5906  1.7256 -1.2875
 8129TIP3    H251311   3.367   1.488   6.301 -0.2497 -1.5061  1.6196
 8130TIP3   OH251312   5.194   8.151   5.420 -0.7022  0.5744  0.1644
 8130TIP3    H151313   5.118   8.117   5.373 -1.3300  1.0473  0.8186
 8130TIP3    H251314   5.227   8.221   5.363  0.5360 -1.0115 -1.1311
 8131TIP3   OH251315   5.615   4.272   5.787  0.4725 -0.5523 -0.0957
 8131TIP3    H151316   5.543   4.261   5.724  0.9708 -0.4120 -0.6920
 8131TIP3    H251317   5.664   4.348   5.755  1.5230 -1.3051 -0.2944
 8132TIP3   OH251318   5.171   6.255   6.420  0.2227 -0.1315  0.0303
 8132TIP3    H151319   5.203   6.345   6.416  0.8457 -0.3230  0.5201
 8132TIP3    H251320   5.240   6.207   6.467 -0.3160 -0.7638  0.1906
 8133TIP3   OH251321   5.056   4.480   5.905 -0.9376  0.1193 -0.4850
 8133TIP3    H151322   5.107   4.409   5.868 -0.3388  0.0417  0.4500
 8133TIP3    H251323   5.060   4.466   6.000 -3.1432 -0.2080 -0.3756
 8134TIP3   OH251324   3.462   1.209   6.555 -0.0388 -0.2374 -0.2119
 8134TIP3    H151325   3.473   1.301   6.534  1.2504 -0.1407  0.7882
 8134TIP3    H251326   3.459   1.206   6.651 -0.4484 -1.2012 -0.2384
 8135TIP3   OH251327   0.240   2.491   1.858  0.8475 -0.3761  0.2275
 8135TIP3    H151328   0.330   2.494   1.824  0.7663 -0.5089  0.0012
 8135TIP3    H251329   0.207   2.580   1.846  1.7740  0.3631  2.5730
 8136TIP3   OH251330   8.043   2.784   5.055  0.0772  0.3409 -0.6825
 8136TIP3    H151331   8.110   2.754   4.993  1.4836  0.2735  0.8241
 8136TIP3    H251332   8.083   2.776   5.141 -1.2719  1.9010  0.1617
 8137TIP3   OH251333   0.495   3.620   1.103  0.4561  0.2262  0.1555
 8137TIP3    H151334   0.520   3.711   1.118  0.3266  0.0227  1.8008
 8137TIP3    H251335   0.410   3.612   1.147 -0.0917 -0.3999 -0.9835
 8138TIP3   OH251336   5.878   7.866   0.955  0.3976  0.4108  0.4599
 8138TIP3    H151337   5.942   7.934   0.973  0.6952  0.6273 -1.2568
 8138TIP3    H251338   5.895   7.840   0.864 -0.1869 -1.4389  0.8400
 8139TIP3   OH251339   0.272   3.185   0.680  0.1874  0.6297 -0.9708
 8139TIP3    H151340   0.184   3.149   0.688 -0.3665  2.1886  0.3108
 8139TIP3    H251341   0.291   3.221   0.767  1.4276  1.7878 -1.6892
 8140TIP3   OH251342   2.387   2.126   0.396  0.4180  0.2051  0.2623
 8140TIP3    H151343   2.432   2.074   0.463  0.2026  0.7244  0.8188
 8140TIP3    H251344   2.450   2.132   0.324  0.8101 -0.0133  0.5840
 8141TIP3   OH251345   2.076   2.054   6.944  0.3428 -0.1806  0.3299
 8141TIP3    H151346   2.101   2.114   7.015 -1.7796  2.7764 -1.1927
 8141TIP3    H251347   1.981   2.043   6.954  0.2460 -0.9264 -1.1873
 8142TIP3   OH251348   0.438   6.175   1.026 -0.1230 -0.4727 -0.3394
 8142TIP3    H151349   0.515   6.161   1.082  0.0455 -1.4179 -0.7886
 8142TIP3    H251350   0.410   6.087   1.002 -1.2278 -0.1325 -0.3585
 8143TIP3   OH251351   8.373   1.994   0.305  0.1688 -1.0173  0.3695
 8143TIP3    H151352   8.323   2.072   0.329  0.0056 -0.3817 -1.7967
 8143TIP3    H251353   8.463   2.014   0.330  0.0494 -0.3090  0.2528
 8144TIP3   OH251354   1.263   7.199   0.342  0.5702 -0.3042  0.0952
 8144TIP3    H151355   1.292   7.130   0.402  2.0135 -0.6420 -0.9410
 8144TIP3    H251356   1.343   7.246   0.319  0.1964 -0.6697 -2.1666
 8145TIP3   OH251357   2.286   4.642   5.015 -0.2588  0.0234 -0.5585
 8145TIP3    H151358   2.273   4.729   4.977 -1.5620  0.1957  0.2423
 8145TIP3    H251359   2.378   4.641   5.041 -0.3812  1.4138  0.0036
 8146TIP3   OH251360   0.974   0.214   6.198  0.4178 -0.3946  0.0250
 8146TIP3    H151361   0.949   0.293   6.246 -1.4583  0.2862 -1.9053
 8146TIP3    H251362   0.978   0.145   6.265 -2.5458  0.3924  1.1734
 8147TIP3   OH251363   3.509   7.596   1.552 -0.7644 -0.2460 -0.0245
 8147TIP3    H151364   3.511   7.689   1.532  0.8270 -0.3051 -0.2095
 8147TIP3    H251365   3.558   7.586   1.633 -1.0792 -0.9142  0.0984
 8148TIP3   OH251366   0.729   7.797   0.217 -0.7570 -0.0059  0.2326
 8148TIP3    H151367   0.766   7.731   0.158  0.0695  0.5104  0.1514
 8148TIP3    H251368   0.741   7.761   0.304  0.0241  0.1807  0.2120
 8149TIP3   OH251369   5.977   0.199   0.244  0.5620 -0.4166  0.1699
 8149TIP3    H151370   6.057   0.236   0.207  0.1918  0.1600 -0.0697
 8149TIP3    H251371   5.920   0.184   0.168 -0.6089  1.7525  0.5353
 8150TIP3   OH251372   0.572   2.434   6.640 -0.3257 -0.3730  0.4083
 8150TIP3    H151373   0.656   2.438   6.686 -0.6932 -2.6301  1.3878
 8150TIP3    H251374   0.514   2.487   6.694  0.4184  1.2561 -0.3064
 8151TIP3   OH251375   7.034   0.693   1.802 -0.4002 -0.5672  0.5097
 8151TIP3    H151376   6.980   0.624   1.841  0.4836 -0.9352  1.1154
 8151TIP3    H251377   7.039   0.761   1.870 -1.5299  0.2549 -0.2018
 8152TIP3   OH251378   0.243   2.845   0.886 -0.3738  0.2127 -0.1695
 8152TIP3    H151379   0.189   2.827   0.810 -0.7031 -0.3300  0.1837
 8152TIP3    H251380   0.237   2.765   0.939  1.0078  0.0173 -0.2701
 8153TIP3   OH251381   4.188   3.517   5.720 -0.4759  0.0341 -0.2146
 8153TIP3    H151382   4.116   3.487   5.775  0.3807 -1.8058 -0.0426
 8153TIP3    H251383   4.202   3.608   5.747 -0.9397 -0.4095  1.6798
 8154TIP3   OH251384   2.381   2.604   6.227 -0.5524  0.4438 -0.2477
 8154TIP3    H151385   2.375   2.583   6.320 -0.1985 -0.9272 -0.5116
 8154TIP3    H251386   2.390   2.519   6.184 -3.6179  0.7827 -1.8013
 8155TIP3   OH251387   1.708   2.428   6.034  0.0411 -0.4833  0.6591
 8155TIP3    H151388   1.662   2.389   5.959  0.1075  0.5257  0.0604
 8155TIP3    H251389   1.761   2.498   5.995  0.5269 -0.3191  1.5883
 8156TIP3   OH251390   4.763   8.515   6.493  0.5132  0.8197  0.0208
 8156TIP3    H151391   4.684   8.510   6.439  0.5412  1.7298 -0.1265
 8156TIP3    H251392   4.752   8.448   6.559  0.3094 -0.0805 -0.9001
 8157TIP3   OH251393   4.071   4.163   1.327 -0.1854 -0.3953 -0.1911
 8157TIP3    H151394   4.016   4.085   1.334 -0.4148 -0.4203 -1.8449
 8157TIP3    H251395   4.127   4.160   1.405 -0.4174 -2.0315 -0.0493
 8158TIP3   OH251396   3.565   7.232   6.181 -0.9229  0.2091  0.3622
 8158TIP3    H151397   3.653   7.207   6.208 -0.9444 -0.8605 -0.5016
 8158TIP3    H251398   3.543   7.306   6.238  0.0146 -0.3304  1.4699
 8159TIP3   OH251399   7.745   7.356   0.631  0.0964  0.0038 -0.1116
 8159TIP3    H151400   7.743   7.447   0.602  1.6549 -0.0651 -0.5359
 8159TIP3    H251401   7.781   7.308   0.556 -2.2259 -1.2508 -0.5116
 8160TIP3   OH251402   1.894   1.628   1.018 -0.0431  0.1937  0.3093
 8160TIP3    H151403   1.829   1.697   1.008 -0.5136 -0.1585  0.8718
 8160TIP3    H251404   1.923   1.608   0.929 -1.2503 -0.1603 -0.0190
 8161TIP3   OH251405   6.224   5.924   1.933 -0.0955 -0.0106  0.4197
 8161TIP3    H151406   6.316   5.936   1.955  0.7491  0.2229 -2.7662
 8161TIP3    H251407   6.188   6.013   1.929  0.1550  0.0616 -0.5007
 8162TIP3   OH251408   6.484   6.878   0.857  0.2866 -0.1641  0.4051
 8162TIP3    H151409   6.491   6.956   0.911  0.9782  0.3493 -0.4148
 8162TIP3    H251410   6.571   6.865   0.821 -0.1460 -0.4979 -0.5803
 8163TIP3   OH251411   4.575   0.600   0.725 -0.1130 -0.3583 -0.2118
 8163TIP3    H151412   4.594   0.681   0.677 -0.8799 -1.9186 -3.3979
 8163TIP3    H251413   4.656   0.550   0.721 -0.4003 -0.8044 -0.5323
 8164TIP3   OH251414   4.370   0.562   5.864 -0.0714  0.1903  0.0601
 8164TIP3    H151415   4.291   0.508   5.867 -1.1512  1.6874 -0.0043
 8164TIP3    H251416   4.394   0.566   5.772 -0.5661  0.6020 -0.0540
 8165TIP3   OH251417   4.646   7.105   0.312 -0.0635 -0.4265 -0.2198
 8165TIP3    H151418   4.650   7.197   0.288 -1.1355 -0.6338 -1.2467
 8165TIP3    H251419   4.557   7.092   0.343 -0.4504 -1.4855 -1.6795
 8166TIP3   OH251420   6.375   2.638   5.167  0.3851  0.2509  0.4914
 8166TIP3    H151421   6.333   2.652   5.251  0.2768  1.3867  0.2692
 8166TIP3    H251422   6.440   2.708   5.160 -0.4558  0.9491 -0.8847
 8167TIP3   OH251423   6.433   2.673   6.796  0.5034 -0.2576  0.3158
 8167TIP3    H151424   6.395   2.760   6.783 -1.6729 -1.1650  0.2839
 8167TIP3    H251425   6.482   2.681   6.878 -1.3623  0.4963  1.4101
 8168TIP3   OH251426   5.861   4.847   4.811  0.2243  0.0567 -0.0440
 8168TIP3    H151427   5.821   4.930   4.783 -0.9534 -0.9169 -1.4304
 8168TIP3    H251428   5.949   4.850   4.775 -0.3495  0.0502 -1.5290
 8169TIP3   OH251429   0.418   5.188   5.982 -0.0888 -0.1528  0.3791
 8169TIP3    H151430   0.431   5.218   5.892 -0.7667  1.8933  0.9037
 8169TIP3    H251431   0.496   5.218   6.029  0.0071 -0.7264  0.5937
 8170TIP3   OH251432   3.675   2.962   6.289  0.3848  0.5711  0.3996
 8170TIP3    H151433   3.695   2.984   6.380 -2.2439  1.8791  0.7427
 8170TIP3    H251434   3.597   2.907   6.294 -1.1876  2.5503 -1.1163
 8171TIP3   OH251435   2.203   2.922   6.435 -0.6513  0.0615 -0.0762
 8171TIP3    H151436   2.209   2.866   6.357 -1.5038  0.5444 -0.5087
 8171TIP3    H251437   2.284   2.905   6.483 -0.4025 -0.7303 -0.7419
 8172TIP3   OH251438   4.947   1.420   1.798 -0.0188 -0.0854 -0.3786
 8172TIP3    H151439   4.873   1.479   1.811 -1.2943 -1.2504 -1.9509
 8172TIP3    H251440   5.013   1.472   1.752 -0.4494  0.5569 -0.2774
 8173TIP3   OH251441   3.377   4.815   0.302  0.2209 -0.0354 -1.0169
 8173TIP3    H151442   3.295   4.860   0.322  0.9056  1.4843 -1.4330
 8173TIP3    H251443   3.431   4.827   0.380 -0.5165 -2.5343 -0.0519
 8174TIP3   OH251444   6.180   2.004   0.220  0.4743 -1.0738 -0.7084
 8174TIP3    H151445   6.176   2.040   0.131  0.8858  0.7208 -0.0493
 8174TIP3    H251446   6.089   1.982   0.240 -0.7775  3.8375  0.3757
 8175TIP3   OH251447   3.517   1.198   1.525  0.3114  0.7854 -0.1806
 8175TIP3    H151448   3.450   1.256   1.489  1.8370  1.5674 -1.9226
 8175TIP3    H251449   3.468   1.130   1.570 -1.7031  0.9761 -1.9184
 8176TIP3   OH251450   0.328   5.482   6.193  0.2972  0.0992  0.4536
 8176TIP3    H151451   0.252   5.426   6.173  0.0532  1.0693 -1.5811
 8176TIP3    H251452   0.305   5.524   6.276 -0.7007 -0.7781  0.6536
 8177TIP3   OH251453   3.777   0.452   5.776 -0.0967 -0.7327 -0.5712
 8177TIP3    H151454   3.783   0.540   5.740  0.5022  0.4331  2.0890
 8177TIP3    H251455   3.865   0.416   5.768  0.9994  0.8748  2.5974
 8178TIP3   OH251456   4.640   1.020   1.643  0.1370 -0.1495 -0.3221
 8178TIP3    H151457   4.548   1.014   1.669  0.1015 -0.8111 -0.5815
 8178TIP3    H251458   4.645   1.099   1.590  0.3174  1.5857  2.1096
 8179TIP3   OH251459   3.674   7.607   7.033  0.0814  0.0304 -0.2429
 8179TIP3    H151460   3.584   7.580   7.013  0.1472 -0.1162 -0.3395
 8179TIP3    H251461   3.707   7.538   0.020  0.4801 -0.4539 -1.0420
 8180TIP3   OH251462   7.178   4.604   6.270  0.0802 -0.8997  0.5215
 8180TIP3    H151463   7.265   4.566   6.281  1.0821  0.8127 -1.0090
 8180TIP3    H251464   7.188   4.694   6.299 -1.0170 -0.4898 -0.3350
 8181TIP3   OH251465   3.584   2.328   0.733 -0.0662  0.3672  0.0399
 8181TIP3    H151466   3.498   2.286   0.729  0.4041 -0.7362  0.9497
 8181TIP3    H251467   3.565   2.417   0.764 -0.8621  0.0555  0.4812
 8182TIP3   OH251468   4.865   2.175   6.871 -0.4165  0.7679 -0.1146
 8182TIP3    H151469   4.789   2.149   6.923 -1.3220 -1.9878 -2.5309
 8182TIP3    H251470   4.828   2.225   6.798  0.4600  1.8081  0.1298
 8183TIP3   OH251471   8.288   6.134   0.607 -0.2782 -0.4293  0.2317
 8183TIP3    H151472   8.207   6.183   0.601  0.7172  1.1377 -3.0123
 8183TIP3    H251473   8.278   6.063   0.543  1.3243  0.6968 -1.4070
 8184TIP3   OH251474   5.303   1.287   5.309  0.0740  0.0297  0.1044
 8184TIP3    H151475   5.311   1.320   5.399  0.0172  1.9754 -0.5704
 8184TIP3    H251476   5.210   1.297   5.288 -0.1596 -1.6223  0.2334
 8185TIP3   OH251477   4.772   6.518   0.935  0.3761 -0.1082  0.1678
 8185TIP3    H151478   4.813   6.432   0.945 -1.1538 -0.7670  1.2419
 8185TIP3    H251479   4.732   6.515   0.848 -0.0561 -0.6808  0.3786
 8186TIP3   OH251480   7.383   5.593   6.136 -0.0169 -0.0366 -0.3111
 8186TIP3    H151481   7.405   5.677   6.175  0.3216 -0.7852  1.1855
 8186TIP3    H251482   7.458   5.571   6.081  0.4473  0.0871  0.2612
 8187TIP3   OH251483   5.033   6.504   0.299  0.0539 -0.5126  0.0098
 8187TIP3    H151484   5.054   6.574   0.237  1.8402 -0.7773  0.2359
 8187TIP3    H251485   5.061   6.424   0.254 -2.0085 -1.1380 -0.2666
 8188TIP3   OH251486   1.232   4.048   6.342 -0.3788 -0.5417  0.5296
 8188TIP3    H151487   1.256   3.986   6.411  1.1764  0.1756  0.6701
 8188TIP3    H251488   1.185   4.117   6.389 -2.9340 -1.9497  0.2512
 8189TIP3   OH251489   0.476   1.152   0.036 -0.2751 -0.3576  0.3771
 8189TIP3    H151490   0.411   1.220   0.020  0.7107  0.6273  0.4816
 8189TIP3    H251491   0.554   1.199   0.064  0.4694 -1.5234  0.3222
 8190TIP3   OH251492   7.998   2.576   0.408 -0.0524  0.1976  0.2185
 8190TIP3    H151493   7.937   2.647   0.387  0.3878  0.8231  0.9993
 8190TIP3    H251494   8.043   2.606   0.487 -0.0081 -1.0468  0.6821
 8191TIP3   OH251495   1.114   4.800   6.041  0.4056 -0.1826 -0.2417
 8191TIP3    H151496   1.181   4.818   5.975  0.3741 -0.8376 -0.4626
 8191TIP3    H251497   1.162   4.755   6.111  0.0223 -1.6477 -0.8808
 8192TIP3   OH251498   2.291   0.735   6.412 -0.2973 -0.5763  0.0115
 8192TIP3    H151499   2.257   0.815   6.370 -1.3820 -0.9842  0.0677
 8192TIP3    H251500   2.378   0.759   6.442 -0.0386  0.1558 -1.2484
 8193TIP3   OH251501   4.127   1.044   0.244  0.0769 -0.1303 -0.2443
 8193TIP3    H151502   4.189   0.977   0.273 -1.1079 -1.8114 -1.4383
 8193TIP3    H251503   4.126   1.108   0.316  1.9651 -0.8775  0.5017
 8194TIP3   OH251504   5.612   8.208   1.778 -0.0943  0.0214  0.1103
 8194TIP3    H151505   5.559   8.178   1.704 -0.8045  0.6774  0.3410
 8194TIP3    H251506   5.590   8.301   1.788 -0.3895 -0.1731  1.4588
 8195TIP3   OH251507   7.989   1.116   6.269 -0.7148  0.2536 -0.7226
 8195TIP3    H151508   7.904   1.077   6.248 -1.0268  1.0163 -0.9079
 8195TIP3    H251509   8.003   1.095   6.361 -0.0018 -1.8951 -1.2571
 8196TIP3   OH251510   3.353   0.805   0.144  0.2054  0.6096 -0.0742
 8196TIP3    H151511   3.360   0.710   0.159  0.3977  0.9366  2.1486
 8196TIP3    H251512   3.363   0.814   0.049  0.3480 -1.5748 -0.3317
 8197TIP3   OH251513   2.132   7.054   1.476  0.3413 -0.1815 -0.0851
 8197TIP3    H151514   2.171   7.138   1.452  0.7257 -0.4388 -0.3710
 8197TIP3    H251515   2.038   7.071   1.478  0.4169  0.2527 -0.1538
 8198TIP3   OH251516   4.117   7.754   0.365 -0.1295  0.2960  0.7208
 8198TIP3    H151517   4.095   7.839   0.402 -0.1828  0.9989 -0.8396
 8198TIP3    H251518   4.204   7.734   0.399 -0.9290  0.0032  2.7044
 8199TIP3   OH251519   0.399   2.286   5.925  0.6294 -0.3695  0.4500
 8199TIP3    H151520   0.475   2.271   5.869 -0.3318 -3.2278 -0.2980
 8199TIP3    H251521   0.325   2.295   5.864 -0.4496 -3.6481  1.0301
 8200TIP3   OH251522   1.734   5.703   5.927 -0.1129 -0.1696 -0.2026
 8200TIP3    H151523   1.688   5.774   5.881 -2.4164 -2.4972 -1.8224
 8200TIP3    H251524   1.736   5.731   6.018 -1.1042  1.8715 -0.7313
 8201TIP3   OH251525   2.636   1.647   0.021  0.6173 -0.4510  0.1376
 8201TIP3    H151526   2.638   1.737   0.056 -0.8086  0.0049 -0.8760
 8201TIP3    H251527   2.545   1.620   0.029  0.9350 -1.6292 -0.0584
 8202TIP3   OH251528   7.265   5.813   0.483  0.2684 -1.0955  0.0771
 8202TIP3    H151529   7.221   5.759   0.417 -0.5198  0.1701 -0.4729
 8202TIP3    H251530   7.246   5.903   0.457  1.4676 -0.5412  1.0223
 8203TIP3   OH251531   0.514   4.046   5.792  0.1446  0.5083 -0.2615
 8203TIP3    H151532   0.486   3.960   5.822 -0.2823  0.1920 -1.4836
 8203TIP3    H251533   0.609   4.042   5.791  0.1476  0.3635  0.5467
 8204TIP3   OH251534   2.561   1.615   1.664  0.0488  0.2122  0.2205
 8204TIP3    H151535   2.560   1.703   1.704 -1.1954  0.7165 -0.8619
 8204TIP3    H251536   2.468   1.592   1.654  0.3578 -1.0979  0.1818
 8205TIP3   OH251537   6.603   8.249   0.316  0.0087  0.2243  0.2752
 8205TIP3    H151538   6.676   8.189   0.300  0.1872  0.6464 -0.5163
 8205TIP3    H251539   6.611   8.272   0.409  0.5472 -0.1702  0.3297
 8206TIP3   OH251540   4.138   2.042   0.959 -0.1073  0.1084 -0.3935
 8206TIP3    H151541   4.171   2.123   0.997  1.9028 -1.3475  1.2209
 8206TIP3    H251542   4.150   2.053   0.865 -0.3034  1.8188 -0.2456
 8207TIP3   OH251543   8.038   7.986   5.280 -0.1510  0.2070 -0.3336
 8207TIP3    H151544   8.015   7.893   5.282 -0.5861  0.3200  0.4387
 8207TIP3    H251545   7.966   8.029   5.325  0.2041  0.8856 -0.4054
 8208TIP3   OH251546   4.697   8.328   6.720 -0.3163 -0.5510  0.2631
 8208TIP3    H151547   4.649   8.248   6.740  0.4254 -0.8914  0.7263
 8208TIP3    H251548   4.757   8.339   6.793  0.4159 -0.2289 -0.3681
 8209TIP3   OH251549   6.789   6.430   5.179 -0.0336 -0.0062 -0.1341
 8209TIP3    H151550   6.724   6.361   5.167  0.2710  0.0354 -2.4752
 8209TIP3    H251551   6.744   6.510   5.152  0.4743  0.2747 -0.1593
 8210TIP3   OH251552   0.985   7.285   0.330 -0.1910 -0.3117  0.3276
 8210TIP3    H151553   1.045   7.354   0.357  1.3964 -1.0450 -1.1564
 8210TIP3    H251554   1.038   7.206   0.325 -1.2603 -1.0085 -0.9935
 8211TIP3   OH251555   7.945   4.153   5.288  0.3126 -0.1461 -0.4837
 8211TIP3    H151556   8.010   4.223   5.281 -0.6468  1.1110  2.0863
 8211TIP3    H251557   7.865   4.191   5.251  0.1378 -0.3626 -0.3321
 8212TIP3   OH251558   7.310   7.206   5.378 -0.5008 -0.0542  0.0752
 8212TIP3    H151559   7.349   7.261   5.445 -2.3585 -0.6453  1.7151
 8212TIP3    H251560   7.335   7.248   5.295 -0.7018  2.4826  1.2039
 8213TIP3   OH251561   8.431   0.284   0.478 -0.1332  0.0548  1.2110
 8213TIP3    H151562   8.376   0.295   0.555  2.0633  1.4243  2.6723
 8213TIP3    H251563   8.493   0.216   0.502 -0.4327 -0.6857 -0.0062
 8214TIP3   OH251564   6.337   2.613   5.737 -0.0942 -0.4536  0.5859
 8214TIP3    H151565   6.243   2.594   5.741 -0.2284  0.4058  2.5500
 8214TIP3    H251566   6.341   2.701   5.698 -0.1084 -0.5369  0.3991
 8215TIP3   OH251567   6.107   2.810   5.492  0.3480 -0.2762 -0.2922
 8215TIP3    H151568   6.065   2.725   5.482 -1.1978  0.3603  0.3876
 8215TIP3    H251569   6.041   2.873   5.463  0.7737  0.7856  0.9337
 8216TIP3   OH251570   1.617   6.270   6.367 -0.0581 -0.4793 -0.4912
 8216TIP3    H151571   1.589   6.351   6.409 -1.1489 -1.9202  1.7870
 8216TIP3    H251572   1.655   6.298   6.284  2.1925  2.6223  1.3359
 8217TIP3   OH251573   3.788   4.600   0.164  0.2281 -0.2785  0.3149
 8217TIP3    H151574   3.799   4.577   0.256  0.0758  0.4000  0.5053
 8217TIP3    H251575   3.731   4.531   0.128  0.2091 -0.4882  0.7509
 8218TIP3   OH251576   5.711   0.789   6.030 -0.5422  0.3208 -0.3195
 8218TIP3    H151577   5.789   0.742   6.001 -1.2647 -1.0907 -0.0627
 8218TIP3    H251578   5.745   0.868   6.072  0.8130 -0.8435  0.8590
 8219TIP3   OH251579   3.885   3.485   7.021  0.1975  0.2530 -0.0292
 8219TIP3    H151580   3.916   3.522   6.939 -0.3396  0.4071 -0.1629
 8219TIP3    H251581   3.885   3.558   0.012 -0.6783  0.4509 -0.2440
 8220TIP3   OH251582   0.610   3.714   0.171 -0.0581  0.6479 -0.3145
 8220TIP3    H151583   0.680   3.698   0.108 -0.5782  1.0961 -1.0067
 8220TIP3    H251584   0.540   3.755   0.121  0.3592  3.1328  0.9376
 8221TIP3   OH251585   1.337   2.918   6.604 -0.0470 -0.0087 -0.4015
 8221TIP3    H151586   1.372   2.986   6.545 -0.5257 -2.4958 -3.8628
 8221TIP3    H251587   1.246   2.907   6.575 -0.5335 -0.8638  1.3586
 8222TIP3   OH251588   4.745   2.117   0.967 -0.0176  0.0799  0.6265
 8222TIP3    H151589   4.730   2.054   0.897  0.0320 -0.9768  1.5527
 8222TIP3    H251590   4.726   2.202   0.926  2.2912 -0.2541 -1.3493
 8223TIP3   OH251591   7.008   6.646   0.673  0.4166  0.0722 -0.0395
 8223TIP3    H151592   7.015   6.617   0.582  1.0500 -2.5562  0.7541
 8223TIP3    H251593   7.091   6.620   0.713  0.7959  2.5869  0.9909
 8224TIP3   OH251594   4.082   4.672   0.377  1.0256 -0.0223  0.6576
 8224TIP3    H151595   4.016   4.604   0.391  1.7248 -0.4347  2.2242
 8224TIP3    H251596   4.166   4.626   0.383  1.4903  0.6400 -0.4144
 8225TIP3   OH251597   1.858   4.492   6.525  0.3382 -0.4866  0.0541
 8225TIP3    H151598   1.790   4.489   6.593 -1.2073 -0.3288 -1.4379
 8225TIP3    H251599   1.938   4.465   6.571 -1.0093 -2.3089  1.5088
 8226TIP3   OH251600   3.348   0.181   6.981 -0.2862  0.1120 -0.6263
 8226TIP3    H151601   3.342   0.169   0.004 -0.2203  0.5143 -0.5717
 8226TIP3    H251602   3.260   0.162   6.949 -1.1625  2.9728 -0.1526
 8227TIP3   OH251603   4.801   0.829   0.222  0.5823 -0.0541  0.1850
 8227TIP3    H151604   4.783   0.846   0.314 -0.7502 -1.9131  0.3198
 8227TIP3    H251605   4.744   0.890   0.175  1.5432  1.1723  0.5284
 8228TIP3   OH251606   3.264   3.850   6.252 -0.4260  1.2644  0.3333
 8228TIP3    H151607   3.318   3.841   6.330 -0.9651 -1.0828  0.4923
 8228TIP3    H251608   3.174   3.841   6.284 -0.6557  0.2809 -0.5416
 8229TIP3   OH251609   0.740   5.841   0.130 -0.0444 -0.3884  0.2047
 8229TIP3    H151610   0.730   5.751   0.097 -0.2465 -0.6538  0.9588
 8229TIP3    H251611   0.681   5.845   0.205 -0.8575  0.7185 -0.4659
 8230TIP3   OH251612   6.555   5.826   0.002  0.2088  0.1534  0.1833
 8230TIP3    H151613   6.503   5.870   0.069  0.4999  0.9637 -0.1071
 8230TIP3    H251614   6.636   5.801   0.047 -0.4356 -1.1747  0.6536
 8231TIP3   OH251615   3.994   2.625   6.233  0.9036  0.5570 -0.3113
 8231TIP3    H151616   4.026   2.603   6.146  1.3638  1.0158 -0.2675
 8231TIP3    H251617   4.066   2.675   6.272  1.3814 -1.0016  0.9123
 8232TIP3   OH251618   1.814   6.087   6.419 -0.2272 -0.0531  0.7074
 8232TIP3    H151619   1.731   6.130   6.400 -0.0452  0.2389  0.5554
 8232TIP3    H251620   1.803   5.997   6.390 -0.4343  0.0270  0.5409
 8233TIP3   OH251621   7.938   2.468   6.218  0.0787 -0.2982 -0.0497
 8233TIP3    H151622   7.879   2.404   6.258  0.0358 -0.6790 -0.7043
 8233TIP3    H251623   7.972   2.423   6.140 -1.6637  1.2430 -1.7974
 8234TIP3   OH251624   8.213   4.695   5.791  0.3451 -0.1935 -0.4872
 8234TIP3    H151625   8.166   4.737   5.863  0.9671 -0.5871  0.1695
 8234TIP3    H251626   8.284   4.646   5.834  0.7160 -0.4561 -1.3665
 8235TIP3   OH251627   0.747   5.004   0.389  0.3288  0.2699 -0.8762
 8235TIP3    H151628   0.694   4.953   0.450  0.5267  0.8887 -0.1739
 8235TIP3    H251629   0.699   5.000   0.306 -0.7954  0.7721 -0.2694
 8236TIP3   OH251630   0.926   7.652   5.554  0.2290  0.3088 -0.0212
 8236TIP3    H151631   1.002   7.667   5.498 -1.0901  1.1269 -1.6947
 8236TIP3    H251632   0.885   7.738   5.563 -0.8957 -0.2329  0.2322
 8237TIP3   OH251633   5.826   1.873   0.050  0.0828 -0.3747  0.1597
 8237TIP3    H151634   5.796   1.784   0.033  0.8109 -0.5162 -0.4108
 8237TIP3    H251635   5.819   1.917   7.037 -0.4320  0.1656  0.4771
 8238TIP3   OH251636   0.206   6.965   1.004 -0.2538 -0.6228  0.2156
 8238TIP3    H151637   0.203   7.042   1.060 -0.5930 -0.3376 -0.1894
 8238TIP3    H251638   0.232   6.999   0.918  1.1448 -1.1628  0.3872
 8239TIP3   OH251639   3.048   5.953   0.591 -0.1460  0.4780  0.0305
 8239TIP3    H151640   2.960   5.916   0.584  0.0048  0.1634 -0.1820
 8239TIP3    H251641   3.087   5.906   0.665  0.2531 -0.2128 -0.6099
 8240TIP3   OH251642   4.928   0.068   6.237 -0.4680  0.3134  0.4752
 8240TIP3    H151643   5.007   0.121   6.251 -0.0553 -0.1483 -0.1015
 8240TIP3    H251644   4.860   0.132   6.217  0.0384  0.6333 -0.2543
 8241TIP3   OH251645   4.039   4.574   1.225  0.0487  0.1301 -0.6174
 8241TIP3    H151646   4.077   4.588   1.311  0.5144  0.2095 -0.8346
 8241TIP3    H251647   3.964   4.517   1.241  0.3251 -0.1185 -0.2007
 8242TIP3   OH251648   7.931   2.564   5.293  0.1392  0.1042 -0.3565
 8242TIP3    H151649   7.917   2.513   5.213  0.0153  1.6805 -1.3902
 8242TIP3    H251650   7.895   2.510   5.363  0.7837 -1.5810 -1.2697
 8243TIP3   OH251651   4.038   4.340   7.051  0.0248 -0.1693  0.0244
 8243TIP3    H151652   3.977   4.352   0.053  1.5721  0.6272  1.2395
 8243TIP3    H251653   4.033   4.246   7.031 -0.1878 -0.4686  1.3944
 8244TIP3   OH251654   6.445   0.961   7.020  0.4716 -0.3606  0.0903
 8244TIP3    H151655   6.532   0.947   7.057 -0.3202 -1.0273  1.8170
 8244TIP3    H251656   6.404   1.024   0.008 -0.2893 -0.2022 -0.5926
 8245TIP3   OH251657   5.559   0.564   0.106 -0.0913  0.2517 -0.5127
 8245TIP3    H151658   5.526   0.604   0.026 -0.1609  2.0700  0.3649
 8245TIP3    H251659   5.650   0.541   0.085 -1.0337 -2.3818 -2.1069
 8246TIP3   OH251660   1.756   4.213   6.174  0.1012  0.1150  0.4555
 8246TIP3    H151661   1.683   4.271   6.150 -1.3518 -1.3292  1.1931
 8246TIP3    H251662   1.834   4.260   6.145 -0.9833  2.5033  1.1566
 8247TIP3   OH251663   3.643   8.369   6.746 -0.0272  0.8607  0.1293
 8247TIP3    H151664   3.632   8.399   6.836  2.3605 -0.0595  0.8050
 8247TIP3    H251665   3.555   8.344   6.718 -0.8620  1.4049  2.1228
 8248TIP3   OH251666   8.221   6.597   6.258 -0.3180 -0.9984 -0.2360
 8248TIP3    H151667   8.126   6.607   6.257 -0.3208 -0.9142  0.3950
 8248TIP3    H251668   8.237   6.519   6.310  0.0543  0.4383  1.9297
 8249TIP3   OH251669   6.396   4.628   0.502 -0.0048  0.1337  0.1991
 8249TIP3    H151670   6.453   4.700   0.529  0.3790 -0.6842  1.6976
 8249TIP3    H251671   6.408   4.561   0.570 -0.1225 -1.4787 -1.2962
 8250TIP3   OH251672   1.293   6.955   6.323 -0.1310 -0.0496 -0.0829
 8250TIP3    H151673   1.289   6.908   6.240 -1.9225 -0.5773  0.2492
 8250TIP3    H251674   1.329   7.041   6.301 -0.1892 -0.3259 -1.3259
 8251TIP3   OH251675   2.376   7.639   1.258 -0.2990 -0.7679 -0.1198
 8251TIP3    H151676   2.454   7.653   1.204 -0.2241 -3.3524 -0.8007
 8251TIP3    H251677   2.344   7.728   1.277  2.6004  0.3890 -0.0422
 8252TIP3   OH251678   8.124   3.210   5.655 -0.3183  0.1602  0.0663
 8252TIP3    H151679   8.196   3.268   5.678 -1.1770  1.3678 -0.1833
 8252TIP3    H251680   8.150   3.170   5.572  1.2613 -1.5772  1.3165
 8253TIP3   OH251681   0.457   1.637   0.246  0.3575  0.6429 -0.1412
 8253TIP3    H151682   0.420   1.723   0.266 -1.1049  0.1068 -0.4772
 8253TIP3    H251683   0.498   1.648   0.160 -3.0542  0.1315 -1.9930
 8254TIP3   OH251684   3.360   2.424   6.737 -0.2291 -0.4060  0.2967
 8254TIP3    H151685   3.321   2.355   6.683  0.5756 -0.9556  0.3972
 8254TIP3    H251686   3.323   2.412   6.824  1.1879 -1.8192  0.7436
 8255TIP3   OH251687   1.997   7.027   6.026 -0.3268  0.2850  0.4290
 8255TIP3    H151688   1.941   7.031   6.104  0.6179  0.1991  1.1198
 8255TIP3    H251689   1.965   7.099   5.971 -2.2134 -0.7616  0.0416
 8256TIP3   OH251690   8.370   3.314   5.724 -0.4601 -0.0523 -0.6763
 8256TIP3    H151691   8.445   3.256   5.740 -1.1951 -0.6138  0.9143
 8256TIP3    H251692   8.409   3.400   5.711  0.4167  0.2934  3.1921
 8257TIP3   OH251693   7.082   1.738   6.742 -0.3493 -0.4960  0.2072
 8257TIP3    H151694   7.035   1.659   6.717 -0.1826 -0.2274 -1.0238
 8257TIP3    H251695   7.029   1.777   6.811 -1.2046 -0.9096 -0.2095
 8258TIP3   OH251696   6.061   5.431   5.913  0.1046 -1.0397 -0.3872
 8258TIP3    H151697   6.121   5.502   5.938 -1.9802  0.7959 -0.2600
 8258TIP3    H251698   6.039   5.388   5.995  2.8439 -3.2296 -0.6490
 8259TIP3   OH251699   0.303   7.662   0.948 -1.0089 -0.4117 -0.2210
 8259TIP3    H151700   0.261   7.602   1.009 -0.1617 -0.5881  0.1986
 8259TIP3    H251701   0.236   7.729   0.931 -1.5329 -0.8036  0.2638
 8260TIP3   OH251702   5.718   1.109   0.773 -0.1238  0.0390  0.2253
 8260TIP3    H151703   5.768   1.039   0.731  0.1673  0.5007 -0.2140
 8260TIP3    H251704   5.774   1.141   0.843 -0.0342  0.1782  0.0918
 8261TIP3   OH251705   4.649   4.384   1.278 -0.1406  0.6909  0.4418
 8261TIP3    H151706   4.625   4.294   1.301 -0.3782  1.2596  2.5763
 8261TIP3    H251707   4.567   4.433   1.286  0.5064  1.5671  1.9707
 8262TIP3   OH251708   8.154   4.942   0.390 -0.3013  0.9563 -0.3339
 8262TIP3    H151709   8.063   4.937   0.422 -0.2975  2.1656 -0.0704
 8262TIP3    H251710   8.156   4.882   0.316 -0.8747 -0.3357  0.6566
 8263TIP3   OH251711   7.846   3.777   5.566 -0.2599  0.0592  0.2772
 8263TIP3    H151712   7.888   3.844   5.620  1.4643  0.8330 -1.8992
 8263TIP3    H251713   7.899   3.773   5.486 -0.1316 -4.0755  0.3630
 8264TIP3   OH251714   7.955   0.163   0.120 -0.3206 -0.1910  0.7769
 8264TIP3    H151715   7.993   0.159   0.032 -0.9006 -1.2557  0.5615
 8264TIP3    H251716   8.020   0.121   0.176 -0.2465 -0.1129  0.7493
 8265TIP3   OH251717   2.137   2.425   5.449 -0.0200 -0.4716 -0.0629
 8265TIP3    H151718   2.142   2.333   5.478  3.0055 -1.1759 -2.4088
 8265TIP3    H251719   2.110   2.420   5.358 -1.5404  1.1718  0.2395
 8266TIP3   OH251720   1.157   7.092   7.014 -0.1252  0.2141 -0.2017
 8266TIP3    H151721   1.065   7.106   6.991 -0.5306  0.0178  1.2257
 8266TIP3    H251722   1.156   7.017   0.001  0.9843  0.0397 -0.3851
 8267TIP3   OH251723   1.325   4.989   6.550  0.2226 -0.0104 -0.7206
 8267TIP3    H151724   1.275   5.037   6.483  2.1426  2.6185 -0.4406
 8267TIP3    H251725   1.260   4.963   6.615 -1.1733  0.6064 -1.8125
 8268TIP3   OH251726   7.842   0.741   6.109 -0.1459  0.4572  0.3082
 8268TIP3    H151727   7.837   0.836   6.125 -0.8948  0.3654  0.6787
 8268TIP3    H251728   7.755   0.718   6.077  0.5522  0.1822 -1.5200
 8269TIP3   OH251729   0.075   3.478   6.510  0.4090  0.2282  0.4410
 8269TIP3    H151730   0.099   3.564   6.545 -0.6269  1.1461 -0.9910
 8269TIP3    H251731   0.029   3.435   6.582  0.6899  0.9766  1.0841
 8270TIP3   OH251732   5.883   5.809   1.051 -0.4976 -0.2834  0.1305
 8270TIP3    H151733   5.797   5.767   1.053 -0.1742 -1.0657 -1.1608
 8270TIP3    H251734   5.894   5.837   0.960  0.3812  0.3181  0.4053
 8271TIP3   OH251735   3.321   8.075   0.864 -0.6301 -0.0194  0.1458
 8271TIP3    H151736   3.317   7.981   0.885 -0.9664 -0.4149 -1.5000
 8271TIP3    H251737   3.229   8.102   0.860 -0.6627 -0.2371 -1.7154
 8272TIP3   OH251738   6.486   7.105   0.984 -0.3962 -0.4219  0.4617
 8272TIP3    H151739   6.445   7.170   0.926 -0.8090 -1.5448 -0.5620
 8272TIP3    H251740   6.514   7.154   1.061 -1.1341  0.8717 -0.0770
 8273TIP3   OH251741   7.010   3.518   6.739  0.1539  0.1784 -0.3917
 8273TIP3    H151742   6.968   3.603   6.724  1.6047  0.8049 -1.0393
 8273TIP3    H251743   6.939   3.455   6.730 -0.5263  1.1381 -2.2329
 8274TIP3   OH251744   3.379   0.978   6.404 -0.7392 -0.1879  0.2585
 8274TIP3    H151745   3.434   1.053   6.427 -1.7854  0.6598  0.0714
 8274TIP3    H251746   3.367   0.930   6.486  0.7404 -0.7293  0.1970
 8275TIP3   OH251747   1.327   3.213   5.922 -0.0605  0.2658 -0.3919
 8275TIP3    H151748   1.307   3.210   5.828 -0.5876 -0.4122 -0.2660
 8275TIP3    H251749   1.336   3.121   5.947  0.7270  0.4639  0.0982
 8276TIP3   OH251750   4.501   7.917   5.349 -0.5401 -0.4507 -0.1927
 8276TIP3    H151751   4.415   7.913   5.307 -0.4839  0.4524 -0.4184
 8276TIP3    H251752   4.499   8.000   5.398 -1.0811 -2.0063  2.6638
 8277TIP3   OH251753   1.480   5.302   6.734  0.3808  0.0849 -0.0057
 8277TIP3    H151754   1.418   5.371   6.756 -0.5081 -0.5156 -0.5640
 8277TIP3    H251755   1.565   5.338   6.758  0.0601  1.7751 -1.2275
 8278TIP3   OH251756   8.059   6.976   6.025  0.2386  0.3658 -0.8400
 8278TIP3    H151757   7.997   6.916   6.068  2.1752 -2.0406 -1.1846
 8278TIP3    H251758   8.095   7.029   6.096  0.8269 -1.1431  0.0399
 8279TIP3   OH251759   6.808   7.964   1.275 -0.1909 -0.1220 -0.1930
 8279TIP3    H151760   6.893   7.922   1.284  0.0868  0.5223  0.2685
 8279TIP3    H251761   6.745   7.892   1.282  0.2747 -0.4640  0.6171
 8280TIP3   OH251762   6.563   1.412   5.875  0.3309 -0.3853  0.4076
 8280TIP3    H151763   6.559   1.455   5.790 -2.2266 -1.4101 -0.0953
 8280TIP3    H251764   6.583   1.482   5.937  0.5769  0.6941 -0.8520
 8281TIP3   OH251765   1.803   6.296   1.186 -0.5274  0.1236  0.1118
 8281TIP3    H151766   1.831   6.262   1.101  0.1602  0.9218  0.0143
 8281TIP3    H251767   1.728   6.352   1.165  0.2208  1.0769 -0.1029
 8282TIP3   OH251768   4.731   7.664   1.180  0.5982 -0.6914  0.6342
 8282TIP3    H151769   4.806   7.687   1.235  0.1531  1.4485  0.4258
 8282TIP3    H251770   4.655   7.694   1.231 -0.0743 -2.0380  0.4566
 8283TIP3   OH251771   0.964   3.340   0.367 -0.2055  0.0689  0.1842
 8283TIP3    H151772   1.027   3.268   0.371 -1.3295 -0.9764 -0.5071
 8283TIP3    H251773   0.883   3.305   0.403 -0.5872  1.2103  0.4957
 8284TIP3   OH251774   0.189   2.777   0.461  0.3406 -0.4807  0.4012
 8284TIP3    H151775   0.128   2.843   0.428  0.8976  0.5672  1.4031
 8284TIP3    H251776   0.159   2.695   0.421  0.6304  0.6041 -2.2438
 8285TIP3   OH251777   2.944   1.164   5.519  0.0803  0.5466  0.2357
 8285TIP3    H151778   2.887   1.179   5.444 -1.1197  0.2169  1.0469
 8285TIP3    H251779   2.991   1.246   5.530  0.1467  0.6543 -0.7617
 8286TIP3   OH251780   0.320   4.294   1.767  0.5314  0.0554  0.5856
 8286TIP3    H151781   0.258   4.224   1.746  1.6842 -0.3879 -1.5966
 8286TIP3    H251782   0.404   4.249   1.775  1.0174  0.9956  0.7841
 8287TIP3   OH251783   5.711   5.652   0.145  0.0967 -0.0550 -0.4427
 8287TIP3    H151784   5.709   5.747   0.142  2.8017  0.1316  0.5375
 8287TIP3    H251785   5.786   5.628   0.089 -1.1129 -1.7085 -1.4628
 8288TIP3   OH251786   0.652   4.353   0.125 -0.1189 -0.0804 -0.3051
 8288TIP3    H151787   0.567   4.318   0.151 -0.4828 -0.1923 -1.6013
 8288TIP3    H251788   0.709   4.336   0.200 -0.4874 -2.6591 -0.5175
 8289TIP3   OH251789   4.309   5.764   0.005  0.3414  0.6084 -0.3978
 8289TIP3    H151790   4.343   5.702   0.070  2.5207  1.8393 -0.2677
 8289TIP3    H251791   4.230   5.722   7.041  1.2451 -1.8216  0.3052
 8290TIP3   OH251792   5.548   6.493   0.194 -0.3726  0.2348 -0.1659
 8290TIP3    H151793   5.532   6.535   0.109  0.7512  0.2500 -0.3834
 8290TIP3    H251794   5.615   6.548   0.235 -1.0930  0.3805  0.8619
 8291TIP3   OH251795   0.162   7.167   1.216 -0.0249 -0.2341  0.4513
 8291TIP3    H151796   0.133   7.084   1.253 -2.7284 -0.0517 -0.9798
 8291TIP3    H251797   0.143   7.232   1.284  0.4945 -0.5616  0.9172
 8292TIP3   OH251798   3.115   4.203   5.441  0.1214  0.2645  0.0916
 8292TIP3    H151799   3.108   4.231   5.350 -1.4870  2.8646  0.8739
 8292TIP3    H251800   3.059   4.126   5.447 -1.3838  1.2417 -0.7622
 8293TIP3   OH251801   0.132   3.587   6.894  0.0396  0.0775  0.0842
 8293TIP3    H151802   0.150   3.675   6.862 -0.0475 -0.0257 -0.2524
 8293TIP3    H251803   0.037   3.579   6.893 -0.1320  0.9055  2.6337
 8294TIP3   OH251804   1.583   7.682   6.766  1.1514 -0.1625 -0.0314
 8294TIP3    H151805   1.622   7.638   6.841  1.1315 -3.1940 -1.6267
 8294TIP3    H251806   1.632   7.649   6.691 -1.1810 -0.1963 -1.6382
 8295TIP3   OH251807   8.225   2.690   5.264  0.0220 -0.7511 -0.1322
 8295TIP3    H151808   8.309   2.656   5.294  0.4966  1.6902  1.6106
 8295TIP3    H251809   8.173   2.700   5.343 -0.8382  0.4787 -0.8122
 8296TIP3   OH251810   3.221   5.880   0.782  0.1080  0.4604 -0.3544
 8296TIP3    H151811   3.205   5.853   0.872 -0.2778 -0.6649 -0.7388
 8296TIP3    H251812   3.251   5.970   0.788 -2.3659  1.2805  0.7109
 8297TIP3   OH251813   0.664   7.066   0.980  0.3113 -0.4870  0.1701
 8297TIP3    H151814   0.699   7.118   1.053 -0.2979  2.2267 -1.3121
 8297TIP3    H251815   0.739   7.052   0.923  0.5502 -1.6173  0.7376
 8298TIP3   OH251816   7.896   3.105   0.844  0.4797  0.4332  0.0451
 8298TIP3    H151817   7.849   3.189   0.843 -0.3822 -0.0349 -0.1434
 8298TIP3    H251818   7.839   3.047   0.895 -0.6491 -0.9789 -2.6396
 8299TIP3   OH251819   4.771   1.772   6.753 -0.2706  0.8953  0.1768
 8299TIP3    H151820   4.798   1.826   6.678 -1.1191  1.7747  0.4833
 8299TIP3    H251821   4.724   1.833   6.810  0.7426  0.3458  1.6561
 8300TIP3   OH251822   4.566   5.862   1.716  0.1092 -0.1202  0.3558
 8300TIP3    H151823   4.576   5.768   1.726  0.6753  0.0670  1.9231
 8300TIP3    H251824   4.507   5.887   1.788  0.7264  0.8344  0.5475
 8301TIP3   OH251825   5.107   6.650   0.809 -0.2375 -0.3134 -0.2343
 8301TIP3    H151826   5.167   6.725   0.805  0.3050 -0.7636 -0.6733
 8301TIP3    H251827   5.104   6.617   0.719 -1.7552  0.1718 -0.3970
 8302TIP3   OH251828   6.748   0.439   1.265  0.1696  0.2801 -0.1657
 8302TIP3    H151829   6.723   0.388   1.342  0.8522  0.8296  0.4467
 8302TIP3    H251830   6.770   0.525   1.301 -0.0511  0.7165 -1.0570
 8303TIP3   OH251831   7.218   7.611   5.226  0.3482 -0.6012 -0.8135
 8303TIP3    H151832   7.203   7.669   5.300 -0.6871 -2.4623  0.5353
 8303TIP3    H251833   7.161   7.644   5.157 -0.6116 -0.3069  0.1028
 8304TIP3   OH251834   6.602   2.380   5.587 -0.2476  0.5116 -0.3874
 8304TIP3    H151835   6.560   2.402   5.504  0.7438  0.2244 -0.9880
 8304TIP3    H251836   6.692   2.413   5.578 -0.0687  0.3084  0.4961
 8305TIP3   OH251837   6.907   2.250   0.992  0.1176  0.5369 -0.1479
 8305TIP3    H151838   6.886   2.260   1.085 -0.9734 -0.2031 -0.2978
 8305TIP3    H251839   6.836   2.196   0.957  0.4288  0.9363 -1.4465
 8306TIP3   OH251840   6.919   8.310   5.563 -0.1892 -0.1794  0.5515
 8306TIP3    H151841   6.943   8.298   5.471  1.4729 -0.7195  1.0253
 8306TIP3    H251842   6.852   8.244   5.579 -0.5871  0.0100 -0.3045
 8307TIP3   OH251843   1.045   2.367   0.464 -0.5258 -0.1950 -0.4196
 8307TIP3    H151844   0.981   2.300   0.441 -0.3879 -0.6784  0.5494
 8307TIP3    H251845   0.992   2.440   0.499 -0.6977  0.3431 -1.7630
 8308TIP3   OH251846   6.775   6.959   0.970  0.1526 -0.0636 -0.3162
 8308TIP3    H151847   6.854   6.954   0.917  0.9956 -1.8344  0.9763
 8308TIP3    H251848   6.772   7.049   1.002  1.4398  0.1320 -0.7165
 8309TIP3   OH251849   5.481   6.739   6.330 -0.3104  1.0880 -0.0645
 8309TIP3    H151850   5.505   6.767   6.242 -0.3550  0.5872 -0.2403
 8309TIP3    H251851   5.395   6.778   6.344 -0.5311  0.7491 -0.4458
 8310TIP3   OH251852   8.198   2.838   0.764  0.0516 -0.5561 -0.0516
 8310TIP3    H151853   8.195   2.930   0.792 -0.2394 -0.8872  1.0221
 8310TIP3    H251854   8.268   2.835   0.699 -0.5171  0.6049 -0.7691
 8311TIP3   OH251855   1.718   7.541   0.179  0.7100 -0.1948  0.4230
 8311TIP3    H151856   1.768   7.576   0.253  0.7160 -1.0340  0.8271
 8311TIP3    H251857   1.698   7.618   0.126  0.2983  0.4962  1.5302
 8312TIP3   OH251858   0.687   2.940   5.202  0.2080  0.3419 -0.5100
 8312TIP3    H151859   0.595   2.912   5.204  0.2528  0.2122 -0.2531
 8312TIP3    H251860   0.686   3.028   5.239  0.0775  0.6569 -1.2498
 8313TIP3   OH251861   7.732   8.314   1.111 -0.2993  0.4175 -0.0037
 8313TIP3    H151862   7.773   8.327   1.196 -0.6054 -1.4915  0.4856
 8313TIP3    H251863   7.797   8.264   1.061 -0.0273  1.7063 -1.0023
 8314TIP3   OH251864   2.997   0.820   6.321  0.2092 -0.3488 -0.1943
 8314TIP3    H151865   2.968   0.910   6.314  2.8381  0.5367 -0.7418
 8314TIP3    H251866   3.013   0.807   6.415 -2.8806 -1.2837  0.3322
 8315TIP3   OH251867   2.924   3.627   6.806 -0.4624 -0.9542  0.3672
 8315TIP3    H151868   3.002   3.578   6.831 -0.4490 -0.8566  0.5208
 8315TIP3    H251869   2.951   3.719   6.809 -1.4807 -0.5978  3.9601
 8316TIP3   OH251870   1.282   7.747   6.851 -0.4199 -0.0052  0.6326
 8316TIP3    H151871   1.345   7.695   6.802 -1.0933 -0.5547  0.3229
 8316TIP3    H251872   1.203   7.692   6.854 -0.4425  0.0797  2.2067
 8317TIP3   OH251873   3.746   7.589   6.030  0.4376  0.4722  0.5712
 8317TIP3    H151874   3.744   7.540   6.112  0.1162  0.5267  0.6002
 8317TIP3    H251875   3.737   7.680   6.056 -0.2514  0.4484  0.4488
 8318TIP3   OH251876   8.467   6.584   0.207 -0.3336 -0.2270 -0.3818
 8318TIP3    H151877   8.440   6.619   0.292 -1.3711 -2.7012  0.4271
 8318TIP3    H251878   0.022   6.554   0.221 -0.6619 -1.0655  0.0497
 8319TIP3   OH251879   7.620   6.391   5.751 -0.0541 -0.3131 -0.3395
 8319TIP3    H151880   7.635   6.465   5.692  0.8173 -0.3837 -0.2190
 8319TIP3    H251881   7.542   6.347   5.716 -0.0010  0.0931 -0.9793
 8320TIP3   OH251882   3.606   4.407   1.154  0.0439  0.1782  0.3544
 8320TIP3    H151883   3.627   4.326   1.200 -0.1579  1.0876  2.1313
 8320TIP3    H251884   3.677   4.418   1.090  0.5108 -0.9669  0.6589
 8321TIP3   OH251885   1.946   8.386   6.218  0.0408 -0.3695 -0.2012
 8321TIP3    H151886   1.942   8.335   6.299  1.9053 -0.5780 -0.1939
 8321TIP3    H251887   1.946   8.477   6.246  1.4464 -0.4447  0.1205
 8322TIP3   OH251888   0.950   7.031   1.566 -0.2164 -0.8886 -0.1116
 8322TIP3    H151889   0.898   7.110   1.578 -1.4543 -1.3711 -1.9186
 8322TIP3    H251890   1.036   7.062   1.537 -0.1772 -0.1739  0.7341
 8323TIP3   OH251891   7.293   7.765   1.276  0.2798 -0.0924  0.3132
 8323TIP3    H151892   7.319   7.688   1.327 -1.4173 -0.7950  0.1662
 8323TIP3    H251893   7.330   7.750   1.189 -1.1619 -1.4328 -0.1039
 8324TIP3   OH251894   8.468   6.962   0.814  0.0186  0.0673 -0.2356
 8324TIP3    H151895   0.028   6.969   0.821  0.1221 -1.6954  0.6735
 8324TIP3    H251896   8.440   7.050   0.788  1.9284  0.4831 -1.1000
 8325TIP3   OH251897   4.250   5.887   1.280  0.2871 -0.7478 -0.1390
 8325TIP3    H151898   4.219   5.842   1.359 -0.8488  0.1072 -0.0710
 8325TIP3    H251899   4.190   5.961   1.270  0.0722 -1.1517 -2.1225
 8326TIP3   OH251900   5.001   1.185   6.058  0.7931 -0.2446 -0.1386
 8326TIP3    H151901   5.042   1.111   6.103  0.5904 -0.1818  0.1530
 8326TIP3    H251902   5.063   1.258   6.069  1.5295 -0.6456 -1.3919
 8327TIP3   OH251903   2.456   3.425   5.826  0.0860 -0.2062 -0.5310
 8327TIP3    H151904   2.406   3.345   5.842  0.1636  0.1855  2.2413
 8327TIP3    H251905   2.392   3.487   5.792 -0.3531 -0.9351 -1.0605
 8328TIP3   OH251906   4.175   4.129   0.561  0.5516 -0.2511  0.2310
 8328TIP3    H151907   4.114   4.057   0.580  0.5776 -1.1673 -2.7600
 8328TIP3    H251908   4.258   4.101   0.601  0.2526 -1.2936  0.1520
 8329TIP3   OH251909   5.191   4.059   1.282  0.8018 -0.3087 -0.2177
 8329TIP3    H151910   5.231   3.989   1.333  1.6928 -0.4033 -1.0239
 8329TIP3    H251911   5.103   4.068   1.319  0.7887 -1.6155  0.1195
 8330TIP3   OH251912   1.266   2.652   4.940 -0.6137  0.0766  0.0528
 8330TIP3    H151913   1.266   2.729   4.997 -0.6491  0.7675 -0.8689
 8330TIP3    H251914   1.200   2.594   4.979  1.2555 -0.6972  2.3030
 8331TIP3   OH251915   8.326   1.386   1.373 -0.1510  0.3631 -0.2048
 8331TIP3    H151916   8.370   1.308   1.405 -0.3021  0.8530  1.2740
 8331TIP3    H251917   8.233   1.362   1.371 -0.0199 -0.1223 -1.7000
 8332TIP3   OH251918   5.567   8.299   0.642 -0.0846 -0.3011  0.5708
 8332TIP3    H151919   5.540   8.383   0.605  3.0045 -0.4098 -2.4438
 8332TIP3    H251920   5.648   8.318   0.689 -0.1007 -1.3967  1.0810
 8333TIP3   OH251921   1.550   7.869   0.699  0.3594 -0.2490 -0.4417
 8333TIP3    H151922   1.506   7.840   0.778  0.3472 -0.0878 -0.3881
 8333TIP3    H251923   1.480   7.879   0.634  0.3035  0.0993 -0.3290
 8334TIP3   OH251924   6.739   6.540   0.899  0.3503 -0.2129 -0.2138
 8334TIP3    H151925   6.747   6.509   0.809 -0.6155 -1.2362  0.0394
 8334TIP3    H251926   6.664   6.493   0.935 -0.5851  1.6910  0.4977
 8335TIP3   OH251927   1.955   7.883   1.079  0.0893 -0.0761  0.0752
 8335TIP3    H151928   1.948   7.975   1.103 -0.7817  0.0360 -0.5480
 8335TIP3    H251929   2.043   7.874   1.042  0.2375  0.4594  0.2899
 8336TIP3   OH251930   7.279   7.452   1.922  0.0534 -0.5166 -1.0747
 8336TIP3    H151931   7.230   7.517   1.973  0.1356  0.7434 -2.5300
 8336TIP3    H251932   7.298   7.382   1.984 -0.7602  0.4739  0.3434
 8337TIP3   OH251933   5.020   5.163   6.881  0.5347  0.3585  0.2563
 8337TIP3    H151934   4.984   5.240   6.926  0.2520 -0.1172  0.8498
 8337TIP3    H251935   5.077   5.200   6.813  1.1164  1.1000  1.1181
 8338TIP3   OH251936   5.173   1.513   6.029  0.2031 -0.5827  0.1020
 8338TIP3    H151937   5.212   1.600   6.036  1.2884 -1.0205 -0.3607
 8338TIP3    H251938   5.155   1.502   5.936  1.3356 -1.3748 -0.0430
 8339TIP3   OH251939   4.350   3.949   5.493  0.2463  0.1401  0.4772
 8339TIP3    H151940   4.281   4.011   5.472  1.6390  2.0389  1.1886
 8339TIP3    H251941   4.418   3.964   5.427  0.0770 -1.6062 -0.1498
 8340TIP3   OH251942   3.093   1.529   0.217  0.0140  0.0126  0.3670
 8340TIP3    H151943   3.170   1.584   0.232  0.4637 -1.0898  2.6177
 8340TIP3    H251944   3.128   1.439   0.214 -0.9246 -0.3505 -1.2123
 8341TIP3   OH251945   4.306   4.931   6.780 -0.4137 -0.0493 -0.1747
 8341TIP3    H151946   4.294   4.899   6.690 -1.1592 -0.8679  0.2001
 8341TIP3    H251947   4.276   4.858   6.835  0.1963  0.3808  0.7432
 8342TIP3   OH251948   2.992   0.234   0.849  0.5031 -0.2343 -0.3446
 8342TIP3    H151949   3.009   0.327   0.863 -0.4833 -0.0027 -0.6439
 8342TIP3    H251950   3.048   0.210   0.776  1.3665 -0.0807  0.2452
 8343TIP3   OH251951   3.280   4.540   5.766  0.2500 -0.4912 -0.4217
 8343TIP3    H151952   3.263   4.594   5.689 -2.0407 -0.4877  0.0280
 8343TIP3    H251953   3.222   4.464   5.755  0.4928 -0.8855  0.8956
 8344TIP3   OH251954   0.883   3.065   1.187 -0.3164 -0.0948  0.2001
 8344TIP3    H151955   0.880   2.997   1.255  1.6560 -0.5257 -0.0833
 8344TIP3    H251956   0.947   3.128   1.219  0.6088 -0.2743 -1.1921
 8345TIP3   OH251957   0.749   4.712   1.925  0.3212 -0.5353  0.5028
 8345TIP3    H151958   0.811   4.640   1.909 -0.3054 -0.7856 -1.0161
 8345TIP3    H251959   0.684   4.703   1.855  0.7031  2.0365 -0.2963
 8346TIP3   OH251960   7.001   0.088   6.447 -0.3003 -0.2348  0.0965
 8346TIP3    H151961   7.020   0.033   6.371 -0.0914  2.4864 -1.9762
 8346TIP3    H251962   6.907   0.104   6.442  0.1225  2.2085 -1.3498
 8347TIP3   OH251963   3.086   2.539   0.164 -0.3786  0.3856 -0.3564
 8347TIP3    H151964   3.072   2.542   0.259 -0.8921 -0.6979 -0.3801
 8347TIP3    H251965   3.082   2.631   0.137 -1.9571  0.6029  0.4470
 8348TIP3   OH251966   8.085   2.809   5.767 -0.4808 -0.4239  0.5730
 8348TIP3    H151967   8.037   2.757   5.703 -0.4543  0.5212 -0.2461
 8348TIP3    H251968   8.052   2.898   5.755  0.6279  0.0356  0.8011
 8349TIP3   OH251969   3.383   7.459   1.012  0.1924  0.0308  0.4228
 8349TIP3    H151970   3.422   7.530   0.962 -0.4030  1.0586  1.3817
 8349TIP3    H251971   3.309   7.429   0.959  1.9071 -1.6326 -1.1935
 8350TIP3   OH251972   6.100   1.034   0.863  0.0312 -0.2437  0.5423
 8350TIP3    H151973   6.103   1.126   0.889  1.6300 -0.0124 -0.3440
 8350TIP3    H251974   6.157   1.029   0.787 -2.1741 -1.4607 -1.1643
 8351TIP3   OH251975   3.707   7.845   0.104  0.2330 -0.1209 -0.4252
 8351TIP3    H151976   3.708   7.761   0.058 -0.3185 -1.3258  1.6589
 8351TIP3    H251977   3.614   7.863   0.117  0.2903 -1.7236  3.3844
 8352LIG     O151978   2.230   4.378   1.491  0.3520  0.3015  0.0825
 8352LIG     O251979   2.579   3.955   1.771 -0.9773 -0.2847 -1.1192
 8352LIG     O351980   1.997   3.858   2.190 -0.1891  0.3386 -0.2521
 8352LIG     C151981   2.220   4.133   1.832  0.4502  0.4099 -0.2917
 8352LIG     C251982   2.352   4.133   1.757 -0.2232 -0.4418 -0.4961
 8352LIG     C351983   2.110   4.113   1.718 -0.2361 -0.1422  0.1516
 8352LIG     C451984   2.358   4.253   1.654 -0.2125  0.0992  0.1267
 8352LIG     C551985   2.244   4.250   1.549 -0.2327 -0.0413  0.6498
 8352LIG     C651986   2.106   4.223   1.609 -0.2333  0.0485  0.1648
 8352LIG     C751987   2.225   4.021   1.944 -0.0620  0.3181  0.5619
 8352LIG     C851988   2.469   4.156   1.858 -0.0309  0.3916 -0.2314
 8352LIG     C951989   2.098   3.999   2.025  0.3061  0.1779  0.1513
 8352LIG    C1051990   2.823   4.249   2.102  0.5218 -0.3100 -0.6574
 8352LIG    C1151991   2.578   4.066   1.858  0.7881 -0.0274  0.5372
 8352LIG    C1251992   2.479   4.270   1.935 -0.0104 -0.1084  0.2685
 8352LIG    C1351993   2.699   4.205   2.017  0.0348  0.7066 -0.2519
 8352LIG    C1451994   2.773   4.259   2.255  0.0575  0.4434  0.6298
 8352LIG    C1551995   2.697   4.097   1.925  0.1679 -0.2797 -0.0395
 8352LIG    C1651996   2.591   4.289   2.017  0.1742  0.0538  0.7754
 8352LIG    C1751997   2.126   3.901   2.142  0.2270  0.2747 -0.5835
 8352LIG    C1851998   2.867   4.389   2.060  0.4175  0.5026  0.5705
 8352LIG    C1951999   2.935   4.147   2.097  0.1546 -0.0065 -0.1523
 8352LIG    C2052000   2.865   4.340   2.354 -0.5697 -0.1791  0.5068
 8352LIG    C2152001   2.814   4.330   2.500  0.2398 -0.1860 -0.5940
 8352LIG    C2252002   2.916   4.381   2.598  0.1833 -0.5568 -0.6632
 8352LIG    C2352003   2.870   4.372   2.749  0.2050  0.0067  0.1890
 8352LIG    C2452004   2.978   4.403   2.849 -0.3623 -0.0942 -0.4778
 8352LIG     H152005   2.197   4.232   1.878 -1.8964  0.2388 -0.9370
 8352LIG     H252006   2.355   4.043   1.692 -0.1467 -3.7238  3.6659
 8352LIG     H352007   2.012   4.092   1.765 -0.3085  0.3406  0.2196
 8352LIG     H452008   2.139   4.012   1.681  1.6688 -0.3132  1.8933
 8352LIG     H552009   2.453   4.240   1.597 -1.5378 -2.2967 -1.7246
 8352LIG     H652010   2.358   4.351   1.707 -0.8846 -0.4879  1.2699
 8352LIG     H752011   2.269   4.166   1.480  0.0392  0.0499  0.6347
 8352LIG     H852012   2.050   4.311   1.648 -1.9845 -0.5754 -0.8161
 8352LIG     H952013   2.046   4.193   1.520  0.2656 -0.3959 -0.0247
 8352LIG    H1052014   2.307   4.041   2.016  0.9845  1.9815 -1.0026
 8352LIG    H1152015   2.254   3.921   1.905 -0.6857  0.4173 -0.1762
 8352LIG    H1252016   2.021   3.968   1.952  2.0317  1.0829 -2.1755
 8352LIG    H1352017   2.068   4.100   2.060  1.1983 -0.2772  2.4397
 8352LIG    H1452018   2.402   4.346   1.939 -0.0857 -0.2110  0.7814
 8352LIG    H1552019   2.158   4.366   1.428  0.8867 -0.1675 -0.4577
 8352LIG    H1652020   2.768   4.156   2.295  0.7373 -0.0732 -0.5680
 8352LIG    H1752021   2.669   4.299   2.262 -1.0896 -2.4884  1.5097
 8352LIG    H1852022   2.784   4.034   1.908 -0.3547 -1.6593  2.0364
 8352LIG    H1952023   2.591   4.375   2.082  1.4506 -0.4023  1.4167
 8352LIG    H2052024   2.160   3.805   2.096 -1.0648 -0.8557  0.7305
 8352LIG    H2152025   2.207   3.938   2.208 -0.0262  0.5587 -0.4327
 8352LIG    H2252026   2.853   4.414   1.953 -0.8773 -1.5428  0.2144
 8352LIG    H2352027   2.972   4.403   2.094  0.4082  1.7244  0.1364
 8352LIG    H2452028   2.809   4.463   2.119 -2.0626 -1.2693  0.5175
 8352LIG    H2552029   2.966   4.131   1.991 -0.5355 -2.9324  0.0003
 8352LIG    H2652030   2.910   4.050   2.144 -2.8994  0.4067 -0.7207
 8352LIG    H2752031   3.025   4.178   2.154  0.9766 -1.5770 -0.5303
 8352LIG    H2852032   2.884   4.445   2.324 -0.1984 -0.6616 -1.0694
 8352LIG    H2952033   2.963   4.289   2.344 -0.2022  0.2469  1.7967
 8352LIG    H3052034   2.778   4.228   2.528  0.5154 -0.2114 -0.3373
 8352LIG    H3152035   2.723   4.393   2.505 -0.5024 -1.1978 -0.8580
 8352LIG    H3252036   2.658   3.900   1.765 -0.9800 -0.2710 -1.2676
 8352LIG    H3352037   2.940   4.486   2.572 -0.7046 -0.1282  0.2170
 8352LIG    H3452038   3.014   4.329   2.587  0.2190 -0.5353 -0.4491
 8352LIG    H3552039   2.010   3.796   2.262 -0.3890  0.4904 -0.0850
 8352LIG    H3652040   2.817   4.276   2.765 -2.0497  1.0140 -0.7711
 8352LIG    H3752041   2.787   4.443   2.767  0.0906 -0.6025  2.2719
 8352LIG    H3852042   3.039   4.485   2.806 -2.2234 -0.1242 -3.4809
 8352LIG    H3952043   3.043   4.316   2.869 -0.4897  0.4372  2.7523
 8352LIG    H4052044   2.948   4.427   2.953  0.7461  1.2887 -0.4550
 8353LIG     O152045   3.528   3.428   2.720 -0.4826 -0.1005 -0.2661
 8353LIG     O252046   3.518   3.000   2.261 -0.2704 -0.0386  1.0129
 8353LIG     O352047   3.674   3.361   1.889  0.3019 -0.4741  0.2932
 8353LIG     C152048   3.480   3.372   2.299  0.2988 -0.2090  0.5676
 8353LIG     C252049   3.463   3.252   2.393 -0.0379  0.6387 -0.1657
 8353LIG     C352050   3.593   3.471   2.357  0.5271  1.0723 -0.0458
 8353LIG     C452051   3.452   3.282   2.549 -0.0812  0.2285  0.3187
 8353LIG     C552052   3.563   3.385   2.590 -0.1192 -0.6355 -0.1986
 8353LIG     C652053   3.566   3.515   2.500 -0.5657  0.1229  0.0149
 8353LIG     C752054   3.507   3.333   2.151  0.1479 -0.3861 -0.0195
 8353LIG     C852055   3.349   3.158   2.348 -0.4668  0.4256 -0.2754
 8353LIG     C952056   3.504   3.444   2.052 -0.4288  0.3711  1.0301
 8353LIG    C1052057   3.019   2.889   2.253 -0.0899  0.0524  0.5663
 8353LIG    C1152058   3.381   3.034   2.287 -0.2036 -0.2861 -0.5159
 8353LIG    C1252059   3.214   3.189   2.376 -0.0182  0.2819 -0.7061
 8353LIG    C1352060   3.142   2.976   2.288  0.1419  0.2110  0.3275
 8353LIG    C1452061   2.912   2.892   2.368 -0.2726  0.1949  0.3621
 8353LIG    C1552062   3.281   2.946   2.260 -1.1077 -0.1940  0.4883
 8353LIG    C1652063   3.110   3.101   2.339 -0.2895 -0.3106  0.6185
 8353LIG    C1752064   3.543   3.407   1.903  0.3935 -0.0720  0.1384
 8353LIG    C1852065   3.069   2.748   2.234 -0.1110 -0.0196  0.3579
 8353LIG    C1952066   2.969   2.933   2.119 -0.3268 -0.0670  0.8243
 8353LIG    C2052067   2.964   2.889   2.513  0.2720  0.1255 -0.2847
 8353LIG    C2152068   2.865   2.825   2.610  0.9681 -0.5453 -0.0353
 8353LIG    C2252069   2.934   2.808   2.750  0.2280  0.1439 -0.0626
 8353LIG    C2352070   2.837   2.757   2.855 -0.8042  0.5811  0.5755
 8353LIG    C2452071   2.904   2.736   2.983 -0.0684 -0.3276 -0.2859
 8353LIG     H152072   3.387   3.432   2.311  0.0205 -0.5854  0.2763
 8353LIG     H252073   3.566   3.209   2.390  0.2023  1.2163 -0.6869
 8353LIG     H352074   3.594   3.570   2.305 -0.2897  1.1035 -0.0119
 8353LIG     H452075   3.692   3.420   2.354 -0.0754 -0.4179  2.4602
 8353LIG     H552076   3.480   3.187   2.599  1.7301 -0.7375 -2.3464
 8353LIG     H652077   3.350   3.320   2.572 -0.3218  0.6889 -1.3840
 8353LIG     H752078   3.663   3.338   2.595  0.1275 -0.0802  0.0913
 8353LIG     H852079   3.469   3.568   2.500 -0.8219 -0.3000  1.2813
 8353LIG     H952080   3.648   3.579   2.540  1.7104 -0.3144 -3.5529
 8353LIG    H1052081   3.434   3.261   2.109 -1.2581  1.9458 -1.8559
 8353LIG    H1152082   3.605   3.280   2.150  0.2194 -0.2800 -1.5635
 8353LIG    H1252083   3.581   3.517   2.084  1.0380 -1.2763  1.3657
 8353LIG    H1352084   3.410   3.502   2.041  0.1708  0.8970 -2.6062
 8353LIG    H1452085   3.194   3.281   2.429 -2.5301 -0.8577  0.5031
 8353LIG    H1552086   3.522   3.344   2.766  1.2690  0.6536  1.5185
 8353LIG    H1652087   2.855   2.801   2.342  3.1348 -1.9242 -0.2960
 8353LIG    H1752088   2.848   2.982   2.350  0.4372  1.0246  1.8181
 8353LIG    H1852089   3.312   2.859   2.204  1.7595  1.6850 -1.0695
 8353LIG    H1952090   3.014   3.148   2.347  0.1181  0.4668  1.0414
 8353LIG    H2052091   3.468   3.331   1.873 -0.0351  0.3439  0.1361
 8353LIG    H2152092   3.518   3.495   1.839 -0.4558  2.1209  3.2399
 8353LIG    H2252093   3.138   2.746   2.147  0.4655 -1.6284  0.8169
 8353LIG    H2352094   2.988   2.673   2.220  1.0711 -1.0968 -1.0942
 8353LIG    H2452095   3.123   2.720   2.327  1.4625 -1.5113 -0.9311
 8353LIG    H2552096   2.891   2.868   2.074 -0.7115  0.6010  0.5156
 8353LIG    H2652097   3.050   2.941   2.043  0.0770 -2.1063  0.9859
 8353LIG    H2752098   2.909   3.025   2.136  0.7176  0.6166  0.8770
 8353LIG    H2852099   2.987   2.989   2.556 -0.5872  0.2802 -0.1759
 8353LIG    H2952100   3.060   2.832   2.517 -0.4380 -1.0135  1.2427
 8353LIG    H3052101   2.846   2.734   2.549 -0.5469 -0.7991  0.7794
 8353LIG    H3152102   2.767   2.876   2.624  1.4569  0.1759  0.8587
 8353LIG    H3252103   3.524   2.905   2.250 -1.2645  0.0452 -0.7440
 8353LIG    H3352104   2.984   2.901   2.785 -0.1614  0.3209  0.0328
 8353LIG    H3452105   3.018   2.737   2.735  1.1460  0.7262  1.9451
 8353LIG    H3552106   3.688   3.340   1.797 -0.5854  0.8301 -0.1697
 8353LIG    H3652107   2.801   2.660   2.816  1.3913  0.5638 -1.7165
 8353LIG    H3752108   2.755   2.831   2.863 -0.9656  0.4829 -0.0461
 8353LIG    H3852109   2.956   2.830   3.012 -0.8885 -0.0494  0.3305
 8353LIG    H3952110   2.975   2.652   2.973  0.0749  0.0079 -2.6192
 8353LIG    H4052111   2.836   2.711   3.067  0.5140  1.3491  0.7385
 8354LIG     O152112   1.978   1.197   4.639  0.2729  0.8905  0.0085
 8354LIG     O252113   2.381   1.596   4.341  0.3944  0.0590 -0.0291
 8354LIG     O352114   2.364   1.939   4.690 -0.1845 -0.7066 -0.4895
 8354LIG     C152115   2.039   1.597   4.535  0.1068 -0.0373  0.1156
 8354LIG     C252116   2.130   1.496   4.462  0.4118 -0.0166 -0.1500
 8354LIG     C352117   2.013   1.557   4.680 -0.1045 -0.4400 -0.1982
 8354LIG     C452118   2.074   1.350   4.474 -0.0145 -0.1974 -0.1275
 8354LIG     C552119   2.053   1.313   4.623  0.5728  0.0574  0.0658
 8354LIG     C652120   1.965   1.415   4.692  0.4211  0.0286 -0.3098
 8354LIG     C752121   2.087   1.745   4.518  0.1718 -0.0833 -0.4255
 8354LIG     C852122   2.141   1.535   4.320 -0.2367  0.2703  0.0003
 8354LIG     C952123   2.205   1.775   4.609  0.2443 -0.0563 -0.1893
 8354LIG    C1052124   2.189   1.689   3.918  0.2934  0.0411  0.2003
 8354LIG    C1152125   2.263   1.587   4.269 -0.4444  0.2226 -0.4966
 8354LIG    C1252126   2.029   1.541   4.234  0.4107 -0.0845 -0.3424
 8354LIG    C1352127   2.172   1.627   4.049  0.0718 -0.0686 -0.0122
 8354LIG    C1452128   2.067   1.656   3.819  0.0081  0.4822 -0.0279
 8354LIG    C1552129   2.273   1.635   4.140 -0.8640  0.5552  0.0052
 8354LIG    C1652130   2.048   1.568   4.095  0.3244 -0.2525 -0.1726
 8354LIG    C1752131   2.275   1.910   4.583  0.2180 -0.3600 -0.3214
 8354LIG    C1852132   2.317   1.637   3.857  0.2920  0.0995 -0.4445
 8354LIG    C1952133   2.202   1.842   3.946 -0.4442 -0.4765  0.2181
 8354LIG    C2052134   2.089   1.690   3.671 -0.6314 -0.0504  0.1805
 8354LIG    C2152135   1.959   1.676   3.587  0.1061 -0.4732  0.6051
 8354LIG    C2252136   1.986   1.716   3.440 -0.2882 -0.1561 -0.2000
 8354LIG    C2352137   1.866   1.705   3.350 -0.2082  0.2165  0.0021
 8354LIG    C2452138   1.899   1.758   3.210 -0.0921  0.1277  0.2270
 8354LIG     H152139   1.939   1.587   4.487  0.6384 -0.7014 -0.8716
 8354LIG     H252140   2.224   1.491   4.522  1.2136  1.9784 -1.1421
 8354LIG     H352141   1.942   1.626   4.729 -1.0584 -1.1371 -0.5572
 8354LIG     H452142   2.110   1.564   4.734  0.1875 -1.0432 -0.6245
 8354LIG     H552143   2.139   1.282   4.414  1.4309  0.0954  1.0449
 8354LIG     H652144   1.972   1.345   4.430 -1.1009 -0.8618  2.2926
 8354LIG     H752145   2.144   1.286   4.681  1.5143 -1.1212 -1.8408
 8354LIG     H852146   1.864   1.417   4.647 -0.4765  1.8759  1.6056
 8354LIG     H952147   1.968   1.392   4.801  0.5223  1.2353 -0.0438
 8354LIG    H1052148   1.998   1.809   4.537  0.4074 -0.0777  0.7620
 8354LIG    H1152149   2.124   1.770   4.416  1.3150 -0.4077 -0.1053
 8354LIG    H1252150   2.280   1.693   4.609  2.5292  1.9342  0.4700
 8354LIG    H1352151   2.163   1.785   4.711  2.8453 -0.8297  1.0392
 8354LIG    H1452152   1.932   1.503   4.262  0.4683  0.5688  0.8521
 8354LIG    H1552153   1.897   1.229   4.680  0.4559  1.7811 -0.3077
 8354LIG    H1652154   1.979   1.717   3.850  1.7056  1.5658  3.1048
 8354LIG    H1752155   2.044   1.548   3.829 -0.5506  0.4463 -1.4866
 8354LIG    H1852156   2.367   1.683   4.117 -0.1667 -0.6965  0.1380
 8354LIG    H1952157   1.961   1.538   4.039  0.7600 -0.2223 -0.8779
 8354LIG    H2052158   2.345   1.912   4.496 -0.0518  0.2978 -0.5329
 8354LIG    H2152159   2.208   1.998   4.580  0.8809  0.2698  1.6939
 8354LIG    H2252160   2.342   1.532   3.882  1.7258  0.4075 -0.4875
 8354LIG    H2352161   2.405   1.685   3.906  1.3104 -2.0016 -0.1174
 8354LIG    H2452162   2.325   1.665   3.750  2.2130 -0.0527 -0.3771
 8354LIG    H2552163   2.272   1.875   4.026 -0.1047  0.2732 -0.3739
 8354LIG    H2652164   2.099   1.879   3.966 -0.9168 -1.2415 -0.7183
 8354LIG    H2752165   2.233   1.885   3.848 -0.2399 -1.0841  0.0151
 8354LIG    H2852166   2.160   1.620   3.623 -0.4766 -0.5132  1.0456
 8354LIG    H2952167   2.125   1.795   3.671  3.0649 -1.2015  0.1296
 8354LIG    H3052168   1.885   1.739   3.640 -0.5181 -0.2071 -0.5636
 8354LIG    H3152169   1.936   1.568   3.601  0.9374 -0.5126  1.8974
 8354LIG    H3252170   2.393   1.518   4.396 -0.5854  0.1329  0.3061
 8354LIG    H3352171   2.062   1.650   3.393 -0.7103 -2.0880  1.6634
 8354LIG    H3452172   2.014   1.823   3.444  1.0523 -0.4904 -0.2539
 8354LIG    H3552173   2.427   1.868   4.703 -0.0267 -0.0995  3.2526
 8354LIG    H3652174   1.793   1.768   3.404  0.0689 -0.5813  1.3659
 8354LIG    H3752175   1.830   1.600   3.360  2.8336 -0.8813  0.7025
 8354LIG    H3852176   1.996   1.719   3.173 -0.9061  0.3849 -2.3720
 8354LIG    H3952177   1.897   1.868   3.195 -1.2373 -0.2668 -3.2775
 8354LIG    H4052178   1.824   1.712   3.143 -0.5717  2.0861 -0.6456
 8355LIG     O152179   7.145   7.962   4.688  0.2317 -0.8961 -0.3922
 8355LIG     O252180   6.900   7.680   4.243 -0.0783 -0.1221 -0.1591
 8355LIG     O352181   6.954   7.151   4.676 -0.5685 -0.6725  0.2747
 8355LIG     C152182   7.141   7.547   4.593  0.3353 -0.4041 -0.3929
 8355LIG     C252183   7.096   7.650   4.487 -0.3041  0.0408 -0.4892
 8355LIG     C352184   7.096   7.594   4.733 -0.5858  0.2609  0.1703
 8355LIG     C452185   7.150   7.795   4.522  0.9732 -0.3402 -0.4939
 8355LIG     C552186   7.099   7.839   4.653 -0.1909 -0.1718  0.0417
 8355LIG     C652187   7.141   7.738   4.767 -0.7639 -0.0206 -0.1280
 8355LIG     C752188   7.094   7.398   4.567  0.1015  0.2484 -0.5030
 8355LIG     C852189   7.131   7.620   4.346  0.3234 -0.0671 -0.4556
 8355LIG     C952190   7.150   7.297   4.672  0.2241 -0.7278 -0.4417
 8355LIG    C1052191   7.272   7.538   3.947 -0.0948 -0.2703 -0.5559
 8355LIG    C1152192   7.041   7.633   4.232  0.2973 -0.4336  0.0202
 8355LIG    C1252193   7.260   7.598   4.326  0.0027  0.2844  0.7247
 8355LIG    C1352194   7.225   7.586   4.088 -0.6950 -0.3954  0.1166
 8355LIG    C1452195   7.275   7.380   3.952  0.3262 -0.0253 -0.5056
 8355LIG    C1552196   7.089   7.615   4.107 -0.5699  0.3579  0.0195
 8355LIG    C1652197   7.310   7.581   4.203 -0.3315 -0.3024 -0.0941
 8355LIG    C1752198   7.087   7.159   4.638 -0.8236 -0.1266  0.1129
 8355LIG    C1852199   7.422   7.592   3.923 -0.6834  0.3482  0.1637
 8355LIG    C1952200   7.181   7.591   3.842 -0.2070 -0.0802 -0.2524
 8355LIG    C2052201   7.390   7.317   4.019 -0.4166  0.7275  0.2828
 8355LIG    C2152202   7.382   7.162   4.011  0.1093 -0.2629 -0.0076
 8355LIG    C2252203   7.357   7.106   4.143  0.1337 -0.2405 -0.3216
 8355LIG    C2352204   7.217   7.128   4.208  0.3607  0.6593  1.2099
 8355LIG    C2452205   7.106   7.046   4.139 -0.3229  0.5006 -0.1169
 8355LIG     H152206   7.252   7.541   4.599  0.2535 -0.4435  2.3724
 8355LIG     H252207   6.985   7.650   4.489 -0.3020 -0.3455 -0.3858
 8355LIG     H352208   7.134   7.530   4.816  0.8241  1.2401  0.3057
 8355LIG     H452209   6.985   7.588   4.743 -0.5029 -0.1435  0.9220
 8355LIG     H552210   7.125   7.863   4.437  1.3948 -0.2681 -0.5652
 8355LIG     H652211   7.261   7.788   4.526  0.9994 -0.7587 -1.6777
 8355LIG     H752212   6.988   7.851   4.656 -0.1521  1.0122 -1.5561
 8355LIG     H852213   7.251   7.727   4.777 -0.3967  3.1363  0.0831
 8355LIG     H952214   7.096   7.779   4.860 -0.9621 -0.2588 -0.1162
 8355LIG    H1052215   7.129   7.364   4.467 -0.7178 -0.4557 -0.5603
 8355LIG    H1152216   6.983   7.402   4.577  0.1195  0.7430 -0.4763
 8355LIG    H1252217   7.113   7.316   4.775 -0.6793  2.5264 -1.2660
 8355LIG    H1352218   7.261   7.301   4.676  0.1775  3.0360 -0.1844
 8355LIG    H1452219   7.319   7.588   4.416  0.2647  0.2137  0.5482
 8355LIG    H1552220   7.160   8.002   4.602  0.4504  0.9888  0.4715
 8355LIG    H1652221   7.281   7.354   3.844 -0.5922  0.6613 -0.7254
 8355LIG    H1752222   7.178   7.347   3.995  0.7388  1.6510  1.8815
 8355LIG    H1852223   7.006   7.604   4.038  0.4741 -0.0016 -1.2189
 8355LIG    H1952224   7.412   7.549   4.185 -0.4207 -0.3809 -0.4682
 8355LIG    H2052225   7.097   7.145   4.528 -3.6928 -0.6559 -0.1563
 8355LIG    H2152226   7.140   7.076   4.689  0.5201 -0.2778 -1.4583
 8355LIG    H2252227   7.419   7.703   3.932  0.9411  0.3492  1.1440
 8355LIG    H2352228   7.455   7.562   3.821  0.2999 -1.1707  0.8959
 8355LIG    H2452229   7.500   7.559   3.995 -1.0448 -1.7919 -0.3719
 8355LIG    H2552230   7.082   7.544   3.824  0.3979 -1.3557 -0.3382
 8355LIG    H2652231   7.233   7.583   3.745  0.3313  0.3543 -0.0023
 8355LIG    H2752232   7.164   7.701   3.836  1.1723  0.0824 -1.6962
 8355LIG    H2852233   7.391   7.352   4.124 -1.4592  0.3761  0.4219
 8355LIG    H2952234   7.483   7.352   3.969 -1.5908 -0.2153 -2.8144
 8355LIG    H3052235   7.478   7.121   3.974  1.5424  2.4987  0.3525
 8355LIG    H3152236   7.292   7.140   3.951  1.1864 -1.6305 -1.1935
 8355LIG    H3252237   6.862   7.646   4.324  2.6849 -0.8248  0.9324
 8355LIG    H3352238   7.435   7.148   4.211 -0.5403  0.9380 -0.2388
 8355LIG    H3452239   7.369   6.996   4.138 -1.6271 -0.4572 -0.2964
 8355LIG    H3552240   6.906   7.223   4.634 -2.8449 -2.8100 -0.9820
 8355LIG    H3652241   7.196   7.236   4.223 -1.3545  0.2511  2.0398
 8355LIG    H3752242   7.222   7.086   4.310  0.9677  0.7296  1.2121
 8355LIG    H3852243   7.140   6.940   4.134 -0.9204  0.3383 -0.8673
 8355LIG    H3952244   7.104   7.064   4.030  1.5457  0.4174 -0.1966
 8355LIG    H4052245   7.005   7.069   4.179 -0.5533 -0.7117  0.0334
 8356LIG     O152246   7.126   1.156   5.029 -0.6133 -0.5388  0.1059
 8356LIG     O252247   7.097   1.061   4.417  0.0950 -0.4224 -0.7658
 8356LIG     O352248   6.838   0.440   4.601  0.1166 -0.5199 -0.0237
 8356LIG     C152249   7.109   0.831   4.752 -0.3143 -0.2244  0.2438
 8356LIG     C252250   7.144   0.970   4.692 -0.6038 -0.9085 -0.8168
 8356LIG     C352251   7.002   0.847   4.866  0.2560  0.3969 -0.3677
 8356LIG     C452252   7.195   1.055   4.813  0.0764  0.1497  0.2008
 8356LIG     C552253   7.082   1.083   4.919  0.1165  0.7039  0.1590
 8356LIG     C652254   7.039   0.944   4.978  0.0441 -0.1690  0.8633
 8356LIG     C752255   7.066   0.744   4.632  0.2567 -0.8898 -0.1545
 8356LIG     C852256   7.250   0.968   4.583 -0.3127 -0.4075  0.2334
 8356LIG     C952257   6.981   0.623   4.662 -0.7267  0.5113 -0.4424
 8356LIG    C1052258   7.559   0.935   4.276  0.7308  0.2523 -0.4155
 8356LIG    C1152259   7.221   1.003   4.451 -0.1861  0.2257  0.0999
 8356LIG    C1252260   7.377   0.921   4.614 -0.9312  0.0211 -0.4989
 8356LIG    C1352261   7.452   0.952   4.386  0.2866  0.1716 -0.7463
 8356LIG    C1452262   7.511   0.961   4.130  0.1833  0.4012 -0.0247
 8356LIG    C1552263   7.318   0.994   4.354  1.2072  0.5184 -0.5604
 8356LIG    C1652264   7.483   0.923   4.520  0.7510  0.3694 -0.1920
 8356LIG    C1752265   6.928   0.539   4.550  1.0779  0.2529  0.1679
 8356LIG    C1852266   7.591   0.789   4.286 -0.4793  0.6667  0.1197
 8356LIG    C1952267   7.685   1.008   4.310  1.3515 -0.3248  0.2290
 8356LIG    C2052268   7.591   0.904   4.003 -0.4231  0.1982 -0.4791
 8356LIG    C2152269   7.530   0.968   3.877  0.0967  0.4477 -0.0649
 8356LIG    C2252270   7.586   0.906   3.742  0.2264 -0.0089 -0.7523
 8356LIG    C2352271   7.541   0.982   3.617 -0.0727  0.5880  0.1787
 8356LIG    C2452272   7.393   1.009   3.593 -0.1606 -0.0195 -0.4070
 8356LIG     H152273   7.199   0.782   4.795 -0.8195  0.6579  2.4530
 8356LIG     H252274   7.052   1.021   4.657  0.5799  1.5816 -0.5206
 8356LIG     H352275   6.988   0.748   4.915 -2.6847  0.2921 -1.2403
 8356LIG     H452276   6.906   0.876   4.817  0.1266  0.5441 -0.0251
 8356LIG     H552277   7.227   1.155   4.777 -1.5143  0.2226 -1.1052
 8356LIG     H652278   7.284   1.002   4.854  0.3263 -1.6797 -2.4584
 8356LIG     H752279   7.001   1.132   4.861  0.3336 -0.6413 -1.3241
 8356LIG     H852280   7.124   0.905   5.038 -2.0683  0.5659  4.6258
 8356LIG     H952281   6.960   0.959   5.055  0.7238 -0.5882  1.6579
 8356LIG    H1052282   7.157   0.725   4.571  2.0158  1.6568  1.4823
 8356LIG    H1152283   7.000   0.816   4.578  0.2358 -2.0788 -1.7672
 8356LIG    H1252284   6.888   0.654   4.714 -0.0234  0.7597  0.7007
 8356LIG    H1352285   7.040   0.559   4.730 -0.4700 -0.4851 -1.5593
 8356LIG    H1452286   7.394   0.882   4.713 -1.6864  2.2140  0.5564
 8356LIG    H1552287   7.057   1.219   5.055  1.2933  1.6510  0.1898
 8356LIG    H1652288   7.499   1.071   4.123  2.3667  0.7375  0.8037
 8356LIG    H1752289   7.420   0.899   4.117  0.4439 -0.0922  0.4816
 8356LIG    H1852290   7.294   1.022   4.252 -0.1696 -2.0247 -1.0079
 8356LIG    H1952291   7.581   0.887   4.549  0.3047  0.8431  2.0843
 8356LIG    H2052292   6.869   0.605   4.482  0.4082  1.9161  2.2780
 8356LIG    H2152293   7.008   0.508   4.479  0.5811 -0.6136 -0.0299
 8356LIG    H2252294   7.682   0.772   4.225  1.8946  2.6368  2.8333
 8356LIG    H2352295   7.506   0.724   4.256 -0.4117  1.1864 -1.2603
 8356LIG    H2452296   7.625   0.749   4.384  0.4845 -1.1996 -0.9115
 8356LIG    H2552297   7.773   0.985   4.246  0.3461 -2.0638 -0.5787
 8356LIG    H2652298   7.719   0.982   4.413  2.9378 -0.2468 -0.2517
 8356LIG    H2752299   7.668   1.118   4.315  0.5259 -0.4951  1.7607
 8356LIG    H2852300   7.567   0.796   4.015  0.8840  0.0489  0.9768
 8356LIG    H2952301   7.700   0.911   4.021 -0.5704 -0.7338  0.9178
 8356LIG    H3052302   7.555   1.076   3.887 -1.4513  0.7529  0.7393
 8356LIG    H3152303   7.419   0.968   3.869  0.0850 -0.5693 -0.0855
 8356LIG    H3252304   7.081   1.127   4.485  2.6885 -0.2224 -0.2461
 8356LIG    H3352305   7.559   0.799   3.744  0.9423 -0.2008  1.2156
 8356LIG    H3452306   7.697   0.910   3.733  0.0932  2.4538 -2.2450
 8356LIG    H3552307   6.784   0.486   4.665  1.4091  0.7739  0.2005
 8356LIG    H3652308   7.576   0.925   3.528 -1.4503  0.4567 -0.2979
 8356LIG    H3752309   7.594   1.079   3.616 -0.5385  0.8461 -0.7279
 8356LIG    H3852310   7.333   0.916   3.601 -1.2729  0.6574 -0.7273
 8356LIG    H3952311   7.370   1.036   3.488 -2.3242  1.3993  0.3654
 8356LIG    H4052312   7.348   1.086   3.659  0.9759 -0.2106  0.6313
 8357LIG     O152313   5.995   0.887   4.991  0.0775  0.2205  0.6077
 8357LIG     O252314   5.682   0.933   4.484  0.3131  0.4425  0.3878
 8357LIG     O352315   5.314   0.375   4.878  0.3030 -0.2823  0.1050
 8357LIG     C152316   5.666   0.719   4.832 -0.0749 -0.6550 -0.1863
 8357LIG     C252317   5.745   0.805   4.738  0.3796 -0.3142  0.4503
 8357LIG     C352318   5.641   0.809   4.961  0.6043  0.8629  0.0322
 8357LIG     C452319   5.876   0.845   4.793 -1.2500 -0.7109  0.2785
 8357LIG     C552320   5.868   0.906   4.931  0.1005 -0.1068 -0.6133
 8357LIG     C652321   5.766   0.842   5.028  0.2882 -0.1528  0.2815
 8357LIG     C752322   5.527   0.669   4.780 -0.2624  0.2591  0.2426
 8357LIG     C852323   5.775   0.738   4.605  0.2570 -0.3259 -0.6315
 8357LIG     C952324   5.482   0.550   4.859  0.3492  0.3192  0.0569
 8357LIG    C1052325   5.925   0.594   4.216 -0.0642  0.1109 -0.0848
 8357LIG    C1152326   5.744   0.802   4.485  0.5328  0.1245 -0.8604
 8357LIG    C1252327   5.839   0.613   4.599  0.0498 -0.6603  0.0561
 8357LIG    C1352328   5.863   0.640   4.351 -0.1978 -1.0802  0.4164
 8357LIG    C1452329   6.009   0.464   4.209  0.1056  0.2272  0.3181
 8357LIG    C1552330   5.785   0.753   4.363  0.4359 -0.2816 -0.4398
 8357LIG    C1652331   5.889   0.571   4.474 -0.0614  0.2243  0.4783
 8357LIG    C1752332   5.341   0.508   4.825 -0.9079  0.4087  0.1315
 8357LIG    C1852333   6.011   0.712   4.160 -1.0418  0.0670  0.3099
 8357LIG    C1952334   5.810   0.576   4.109  0.3026 -0.7978 -0.4176
 8357LIG    C2052335   6.143   0.464   4.292  0.6109  0.4540  0.9540
 8357LIG    C2152336   6.265   0.471   4.201  0.0982 -0.2529  0.1728
 8357LIG    C2252337   6.397   0.487   4.279 -0.1858 -0.7598  0.0285
 8357LIG    C2352338   6.443   0.354   4.340  0.5785 -0.2313  0.2775
 8357LIG    C2452339   6.556   0.367   4.437 -0.2732 -0.3399  0.0562
 8357LIG     H152340   5.727   0.634   4.869 -0.0144  0.4090  2.4047
 8357LIG     H252341   5.677   0.893   4.730 -0.5792 -1.1060 -0.2695
 8357LIG     H352342   5.576   0.746   5.026 -0.2801  0.7541 -0.9384
 8357LIG     H452343   5.574   0.891   4.929 -2.0779 -1.2047 -0.0320
 8357LIG     H552344   5.923   0.926   4.734 -2.1200  0.2722  0.9153
 8357LIG     H652345   5.946   0.758   4.802  3.3734  2.7216  1.4012
 8357LIG     H752346   5.841   1.013   4.921  0.8152  0.0938 -0.4572
 8357LIG     H852347   5.805   0.751   5.076 -1.0236 -1.3411 -0.8065
 8357LIG     H952348   5.735   0.916   5.105 -0.4818 -1.5261  1.3294
 8357LIG    H1052349   5.542   0.635   4.675  0.5929  3.2691 -0.7106
 8357LIG    H1152350   5.463   0.759   4.777  0.1239  0.5231 -2.5474
 8357LIG    H1252351   5.478   0.569   4.969 -0.8833 -1.2619  0.3295
 8357LIG    H1352352   5.551   0.464   4.845 -1.6681 -1.3848 -0.0322
 8357LIG    H1452353   5.876   0.564   4.688 -0.0497 -0.7275  0.0611
 8357LIG    H1552354   6.004   0.792   4.984 -2.3856 -0.1945  1.7730
 8357LIG    H1652355   6.031   0.447   4.101 -3.1394  1.1869 -0.6269
 8357LIG    H1752356   5.948   0.375   4.236  1.3647 -0.7689 -0.0238
 8357LIG    H1852357   5.757   0.810   4.276  0.5715 -0.4612 -0.6029
 8357LIG    H1952358   5.956   0.486   4.474  0.1633  0.3993 -0.2222
 8357LIG    H2052359   5.261   0.574   4.863 -1.4424  0.1172 -0.4654
 8357LIG    H2152360   5.323   0.507   4.715  1.1479  0.5501 -0.2622
 8357LIG    H2252361   6.092   0.730   4.234 -1.4662 -1.1906  1.1117
 8357LIG    H2352362   5.948   0.801   4.138  0.1343  0.8914  0.1587
 8357LIG    H2452363   6.056   0.676   4.065 -1.3483  1.0282 -0.2163
 8357LIG    H2552364   5.724   0.513   4.139  1.9219 -1.5265  3.2776
 8357LIG    H2652365   5.859   0.534   4.018 -0.8905  0.2118 -1.5602
 8357LIG    H2752366   5.772   0.679   4.091 -0.5826 -1.0056  0.2432
 8357LIG    H2852367   6.149   0.381   4.366  1.2758  0.7311  1.2121
 8357LIG    H2952368   6.138   0.555   4.355  0.3643  0.3875  1.0297
 8357LIG    H3052369   6.254   0.563   4.141  2.8910  0.9894  1.3831
 8357LIG    H3152370   6.268   0.379   4.139  2.1532  0.2919 -0.6372
 8357LIG    H3252371   5.632   0.947   4.565 -0.6587  3.8061 -0.6075
 8357LIG    H3352372   6.384   0.567   4.355  1.4957 -0.4248  0.0095
 8357LIG    H3452373   6.474   0.518   4.205 -0.3760  0.7432  0.4329
 8357LIG    H3552374   5.230   0.361   4.834  1.6153  0.0114 -2.7038
 8357LIG    H3652375   6.464   0.285   4.255 -0.3067 -0.2967  0.1002
 8357LIG    H3752376   6.366   0.303   4.400  0.1466 -0.1729 -0.2166
 8357LIG    H3852377   6.605   0.269   4.452  2.6546  0.9354 -0.4249
 8357LIG    H3952378   6.526   0.412   4.534  1.6287  0.9884  0.0910
 8357LIG    H4052379   6.632   0.440   4.399  0.2812 -0.6257  0.6133
 8358LIG     O152380   2.698   4.089   4.389 -0.0979 -0.0914 -0.0087
 8358LIG     O252381   2.178   4.450   4.507  0.0518  0.2292  0.1626
 8358LIG     O352382   2.108   4.203   4.886  0.3441  0.4382  0.1482
 8358LIG     C152383   2.347   4.086   4.455 -0.2827  0.0989 -0.0304
 8358LIG     C252384   2.384   4.235   4.417  0.2395  0.2998 -0.4368
 8358LIG     C352385   2.467   4.018   4.531 -0.3090 -0.7442  0.0510
 8358LIG     C452386   2.527   4.246   4.356 -0.3677  0.9465  0.2899
 8358LIG     C552387   2.631   4.190   4.453 -0.5141  0.2813  0.0408
 8358LIG     C652388   2.573   4.121   4.578  0.1404  0.1915 -0.1903
 8358LIG     C752389   2.216   4.075   4.532 -0.0595 -0.1203 -1.0641
 8358LIG     C852390   2.278   4.293   4.333  0.3495  0.0876 -0.2775
 8358LIG     C952391   2.215   4.147   4.672 -0.1827 -0.9396  0.8650
 8358LIG    C1052392   2.002   4.489   4.035  0.3396  0.4283  0.3121
 8358LIG    C1152393   2.191   4.398   4.374  0.9567  0.0354  0.7131
 8358LIG    C1252394   2.257   4.248   4.206 -0.6128  0.0579  0.1369
 8358LIG    C1352395   2.089   4.418   4.145  0.2243  0.2956  0.1591
 8358LIG    C1452396   2.094   4.533   3.913  0.6029  0.0796 -0.2855
 8358LIG    C1552397   2.096   4.456   4.286  0.1992  0.0975  0.2863
 8358LIG    C1652398   2.166   4.307   4.113 -0.1230  0.0282 -0.4063
 8358LIG    C1752399   2.084   4.136   4.759 -0.0310  0.1938  1.0953
 8358LIG    C1852400   1.918   4.603   4.096  1.0213 -1.0257 -0.2190
 8358LIG    C1952401   1.888   4.394   3.974  0.7092 -0.5065 -0.8860
 8358LIG    C2052402   2.183   4.645   3.956 -0.4331  0.5502 -0.1943
 8358LIG    C2152403   2.291   4.674   3.845 -0.0286 -0.0531 -0.2858
 8358LIG    C2252404   2.389   4.792   3.871  0.3685  0.5800  0.4097
 8358LIG    C2352405   2.331   4.936   3.889  0.3267 -0.4915  0.4641
 8358LIG    C2452406   2.270   4.992   3.753 -0.1678 -0.0922 -0.4672
 8358LIG     H152407   2.338   4.028   4.361 -2.2699  0.1620  0.0911
 8358LIG     H252408   2.392   4.296   4.510 -1.3848 -0.1482  0.0364
 8358LIG     H352409   2.516   3.950   4.459  1.7179 -0.0895  0.7614
 8358LIG     H452410   2.433   3.947   4.610  0.7104  1.7435  2.9087
 8358LIG     H552411   2.554   4.351   4.331  1.1882  0.2472 -1.2077
 8358LIG     H652412   2.534   4.195   4.257  0.4136 -0.4558  1.0308
 8358LIG     H752413   2.699   4.271   4.486  1.1809 -0.0737 -2.3035
 8358LIG     H852414   2.649   4.078   4.647 -0.3362  0.3307  0.4266
 8358LIG     H952415   2.512   4.195   4.633 -2.0003 -0.8866 -0.9728
 8358LIG    H1052416   2.192   3.968   4.549 -0.3316 -0.1619 -1.6595
 8358LIG    H1152417   2.135   4.118   4.468 -1.0278  2.4787  1.6808
 8358LIG    H1252418   2.240   4.255   4.668  0.7443 -1.0972  1.8145
 8358LIG    H1352419   2.297   4.101   4.731 -0.6711 -4.1969 -0.7788
 8358LIG    H1452420   2.316   4.168   4.164 -0.8132  1.1202 -2.2994
 8358LIG    H1552421   2.623   4.030   4.376 -0.9926  0.8926  0.5284
 8358LIG    H1652422   2.034   4.576   3.830 -0.4976  1.5523  1.2139
 8358LIG    H1752423   2.151   4.445   3.876  0.4409 -1.4991  2.8528
 8358LIG    H1852424   2.043   4.540   4.326 -0.9716  0.3794 -1.6996
 8358LIG    H1952425   2.164   4.280   4.008  1.0176 -1.3147 -0.1045
 8358LIG    H2052426   1.991   4.181   4.717 -1.0993 -2.1284  0.8151
 8358LIG    H2152427   2.065   4.029   4.784  0.0335  0.1464  0.9460
 8358LIG    H2252428   1.989   4.685   4.121  2.1768 -1.9517 -0.3778
 8358LIG    H2352429   1.851   4.574   4.180  2.3806 -0.4322  1.1169
 8358LIG    H2452430   1.862   4.643   4.008  2.0257  0.1549 -0.3523
 8358LIG    H2552431   1.845   4.438   3.881  1.2326  0.3429 -0.7327
 8358LIG    H2652432   1.814   4.372   4.053  0.3227 -0.8727 -1.3412
 8358LIG    H2752433   1.936   4.297   3.946  1.8287 -0.6740  1.4305
 8358LIG    H2852434   2.229   4.617   4.053 -2.3924 -2.3782  0.0246
 8358LIG    H2952435   2.135   4.741   3.982 -2.4920 -0.3952 -0.3204
 8358LIG    H3052436   2.232   4.697   3.753 -1.7764 -0.0631  0.7894
 8358LIG    H3152437   2.349   4.581   3.832  0.8087  0.6806 -2.3474
 8358LIG    H3252438   2.259   4.426   4.554 -1.1430 -2.2324  1.1097
 8358LIG    H3352439   2.459   4.789   3.785  0.7880 -0.0890  0.7582
 8358LIG    H3452440   2.439   4.763   3.966  2.7047 -0.1353 -0.9526
 8358LIG    H3552441   2.139   4.291   4.862  0.3814 -0.3826 -3.4928
 8358LIG    H3652442   2.417   4.991   3.931  0.0324  0.3940 -0.0613
 8358LIG    H3752443   2.247   4.919   3.960  0.8181  2.1377  1.7744
 8358LIG    H3852444   2.181   4.932   3.726 -0.7503  0.6566 -0.2719
 8358LIG    H3952445   2.345   4.977   3.672  0.0115 -1.0699 -0.1258
 8358LIG    H4052446   2.243   5.100   3.759  1.3507  0.2729  0.5307
 8359LIG     O152447   8.044   2.649   2.760 -0.0060  0.1142 -0.5724
 8359LIG     O252448   7.767   2.313   2.309 -0.0339 -0.2353  0.3064
 8359LIG     O352449   7.502   2.677   2.072 -0.2977  0.1168  0.4875
 8359LIG     C152450   7.695   2.670   2.528  0.0273 -0.4056 -0.4990
 8359LIG     C252451   7.772   2.540   2.507  1.4708 -1.0217 -0.4552
 8359LIG     C352452   7.795   2.796   2.521 -0.2213 -0.0142 -0.0503
 8359LIG     C452453   7.891   2.523   2.611  0.4034  0.5302 -0.1849
 8359LIG     C552454   7.976   2.647   2.634  0.5227 -0.2816  0.0719
 8359LIG     C652455   7.897   2.778   2.634  0.5418 -0.1631 -0.5501
 8359LIG     C752456   7.572   2.678   2.430 -0.3654  0.3057 -0.1821
 8359LIG     C852457   7.688   2.409   2.525 -0.5529 -0.2207  0.2371
 8359LIG     C952458   7.603   2.670   2.278 -0.5697  0.3242  0.0872
 8359LIG    C1052459   7.446   2.040   2.576 -0.3625 -0.5055 -0.0450
 8359LIG    C1152460   7.693   2.303   2.433 -0.1129 -0.2375  0.9364
 8359LIG    C1252461   7.600   2.397   2.637 -0.4804 -0.1485 -0.1409
 8359LIG    C1352462   7.538   2.166   2.561 -0.6452 -0.3289  0.3498
 8359LIG    C1452463   7.431   1.999   2.721  0.2100 -0.6335  0.2311
 8359LIG    C1552464   7.619   2.190   2.448  0.0803  0.5553  0.1183
 8359LIG    C1652465   7.523   2.280   2.654 -0.0086 -0.2933 -0.8610
 8359LIG    C1752466   7.489   2.733   2.200  0.3268 -0.0301  0.5741
 8359LIG    C1852467   7.510   1.920   2.500 -0.0754  0.0265  0.3337
 8359LIG    C1952468   7.311   2.071   2.513  0.1402 -0.1995  0.4079
 8359LIG    C2052469   7.548   1.993   2.815  0.3277 -0.3790  0.8818
 8359LIG    C2152470   7.514   1.970   2.963 -0.6827  0.4361 -0.3455
 8359LIG    C2252471   7.636   1.963   3.054 -0.0124  0.1037  0.1331
 8359LIG    C2352472   7.734   1.847   3.017  0.0073 -0.2148 -0.5239
 8359LIG    C2452473   7.852   1.855   3.114  0.0878 -0.4474  0.7058
 8359LIG     H152474   7.671   2.681   2.636  1.0959  0.6441 -0.3335
 8359LIG     H252475   7.819   2.537   2.406 -0.3989 -3.6546 -1.3373
 8359LIG     H352476   7.739   2.890   2.537  0.5245  1.0982 -3.1516
 8359LIG     H452477   7.845   2.794   2.421 -1.1507  1.1944 -0.5591
 8359LIG     H552478   7.957   2.441   2.576 -0.2247  0.7961 -2.0641
 8359LIG     H652479   7.843   2.511   2.711  1.5614  2.7929  0.7112
 8359LIG     H752480   8.056   2.657   2.557  0.3492 -0.5669 -0.1448
 8359LIG     H852481   7.840   2.774   2.729 -1.8803 -0.9689 -1.9458
 8359LIG     H952482   7.974   2.858   2.631  0.4628 -0.1085 -1.2237
 8359LIG    H1052483   7.543   2.784   2.446 -2.1141 -0.1561 -0.0816
 8359LIG    H1152484   7.489   2.613   2.465 -1.3800  0.7098 -1.7565
 8359LIG    H1252485   7.606   2.560   2.265  0.9054  0.2155  1.1972
 8359LIG    H1352486   7.700   2.716   2.250 -0.2361 -1.0635 -1.2263
 8359LIG    H1452487   7.600   2.477   2.709 -0.0825 -0.1970 -0.0839
 8359LIG    H1552488   8.120   2.592   2.746 -0.0510  0.3107 -1.6822
 8359LIG    H1652489   7.389   1.897   2.730  2.2719 -1.4630  1.0331
 8359LIG    H1752490   7.351   2.062   2.766  1.4652  1.0091  0.2915
 8359LIG    H1852491   7.644   2.107   2.384  2.3981  0.1428  1.4513
 8359LIG    H1952492   7.463   2.264   2.742  2.4236  1.1180  1.1959
 8359LIG    H2052493   7.386   2.704   2.230 -1.1226  1.7305 -2.1536
 8359LIG    H2152494   7.501   2.844   2.198  0.5821 -0.0622  0.3313
 8359LIG    H2252495   7.464   1.823   2.527  1.5170 -0.9734 -0.4078
 8359LIG    H2352496   7.618   1.916   2.528 -0.6452 -1.9240  2.5950
 8359LIG    H2452497   7.495   1.924   2.390  1.1503 -2.8490 -0.0224
 8359LIG    H2552498   7.267   2.163   2.558 -0.6055  0.5007 -1.6336
 8359LIG    H2652499   7.246   1.982   2.528  1.0267 -0.9082  0.1530
 8359LIG    H2752500   7.311   2.086   2.403 -0.5323  2.0995  0.6650
 8359LIG    H2852501   7.604   2.088   2.802  1.2365 -0.8312  1.4033
 8359LIG    H2952502   7.616   1.916   2.772  0.6328  1.1558 -1.5863
 8359LIG    H3052503   7.469   1.868   2.966 -1.0203  0.5853 -0.1976
 8359LIG    H3152504   7.431   2.030   3.006 -0.2749  0.6691  0.1240
 8359LIG    H3252505   7.728   2.259   2.240 -0.7674  0.7852 -0.1011
 8359LIG    H3352506   7.610   1.953   3.161 -0.0048  3.2973  0.5475
 8359LIG    H3452507   7.694   2.057   3.043  0.7499 -0.4705 -0.8537
 8359LIG    H3552508   7.443   2.723   2.013  1.5860  0.7058 -1.0533
 8359LIG    H3652509   7.775   1.853   2.914  2.8283 -0.7249  0.4895
 8359LIG    H3752510   7.688   1.747   3.034 -0.4083  0.3114  1.6335
 8359LIG    H3852511   7.818   1.849   3.220  0.1606 -1.8046  0.6677
 8359LIG    H3952512   7.900   1.955   3.106  0.4807 -0.7143 -0.2929
 8359LIG    H4052513   7.917   1.767   3.100  0.8198  0.1338  0.3808
 8360LIG     O152514   2.031   8.027   2.069  0.3717  0.4732  0.2543
 8360LIG     O252515   1.586   8.144   2.358 -0.5226  0.4794 -0.0990
 8360LIG     O352516   2.117   8.105   2.955 -0.0912  0.4215 -0.1747
 8360LIG     C152517   1.967   8.009   2.485 -0.3142  0.1480 -0.6764
 8360LIG     C252518   1.843   8.029   2.392  0.0588  0.2035  0.2288
 8360LIG     C352519   2.094   8.082   2.426 -0.2896 -0.3695 -0.1590
 8360LIG     C452520   1.872   8.000   2.234 -0.1484 -0.0301  0.5980
 8360LIG     C552521   2.003   8.071   2.191  0.7592  0.1891 -0.6447
 8360LIG     C652522   2.120   8.029   2.284  0.1401 -1.1959  0.3476
 8360LIG     C752523   1.926   8.051   2.628 -0.4847  0.1387  0.1634
 8360LIG     C852524   1.720   7.953   2.434 -0.5210 -0.3606  0.2827
 8360LIG     C952525   2.044   8.052   2.732  0.0093 -0.2235  0.8962
 8360LIG    C1052526   1.347   7.746   2.571 -0.4930 -1.1143 -0.2490
 8360LIG    C1152527   1.596   8.018   2.420  0.0271  0.8432  0.3254
 8360LIG    C1252528   1.726   7.824   2.495 -0.3885 -0.2704 -0.6244
 8360LIG    C1352529   1.478   7.819   2.522 -0.3513 -0.2177  1.0858
 8360LIG    C1452530   1.364   7.718   2.727 -0.1230 -0.2191  0.7434
 8360LIG    C1552531   1.480   7.955   2.466 -0.6101 -0.2548  0.7071
 8360LIG    C1652532   1.605   7.757   2.530 -0.5732  0.0042 -0.1090
 8360LIG    C1752533   2.000   8.110   2.869  0.1611 -0.3882  0.1267
 8360LIG    C1852534   1.323   7.618   2.494 -0.2150  0.0863 -0.2528
 8360LIG    C1952535   1.228   7.844   2.557 -0.4499 -0.1727  0.1901
 8360LIG    C2052536   1.247   7.649   2.797  0.4042 -0.3424 -0.4003
 8360LIG    C2152537   1.260   7.669   2.950 -0.5094 -0.2674 -0.0887
 8360LIG    C2252538   1.143   7.631   3.041  0.2398 -0.5370  0.4381
 8360LIG    C2352539   1.150   7.703   3.171  0.4129 -0.0889 -0.1421
 8360LIG    C2452540   1.043   7.641   3.270 -0.5478  0.1411  0.1627
 8360LIG     H152541   1.996   7.902   2.491  1.0668  0.1776 -4.3679
 8360LIG     H252542   1.821   8.138   2.396  1.5743  0.5091  0.9902
 8360LIG     H352543   2.185   8.064   2.488  0.0239  0.6556 -0.3066
 8360LIG     H452544   2.083   8.192   2.430  0.3045 -0.3207  0.3211
 8360LIG     H552545   1.790   8.037   2.169  0.8954 -1.5803 -1.7375
 8360LIG     H652546   1.888   7.891   2.223 -0.7721 -0.0127 -0.6118
 8360LIG     H752547   1.993   8.181   2.190 -1.5798  0.0190  0.0461
 8360LIG     H852548   2.129   7.918   2.295 -1.5890 -1.4601 -0.4706
 8360LIG     H952549   2.213   8.079   2.251 -1.4485  0.1699 -2.3807
 8360LIG    H1052550   1.845   7.983   2.661  1.2951 -1.5640  1.2262
 8360LIG    H1152551   1.894   8.158   2.620 -0.2125  0.2696  0.7282
 8360LIG    H1252552   2.134   8.111   2.707 -0.8349 -0.1911 -2.4565
 8360LIG    H1352553   2.059   7.942   2.742 -2.1567 -0.4934  1.7822
 8360LIG    H1452554   1.821   7.774   2.507  0.3887  1.2323 -0.3063
 8360LIG    H1552555   1.963   7.968   2.037  0.2612  1.5187 -1.6044
 8360LIG    H1652556   1.382   7.817   2.774  0.6573  0.3907 -0.7620
 8360LIG    H1752557   1.457   7.658   2.743  0.2193 -0.6536 -2.2028
 8360LIG    H1852558   1.385   8.002   2.445 -1.1622 -1.7736 -0.4762
 8360LIG    H1952559   1.603   7.661   2.579 -3.5009  0.2127  0.3643
 8360LIG    H2052560   1.959   8.212   2.853  0.2978 -0.4153 -0.4408
 8360LIG    H2152561   1.924   8.037   2.904 -1.4733  1.4010  0.4798
 8360LIG    H2252562   1.315   7.655   2.389  0.3343  3.9760  0.9426
 8360LIG    H2352563   1.227   7.564   2.508 -0.8335  0.5380 -2.3171
 8360LIG    H2452564   1.404   7.544   2.511 -0.0601  0.6740  1.6980
 8360LIG    H2552565   1.215   7.925   2.632 -0.2997  0.8488 -0.8555
 8360LIG    H2652566   1.134   7.786   2.555  0.1029 -1.1542  1.4857
 8360LIG    H2752567   1.225   7.885   2.454 -0.0664  0.9723  0.6074
 8360LIG    H2852568   1.250   7.541   2.768 -3.1753 -0.2720 -1.5217
 8360LIG    H2952569   1.150   7.679   2.751  0.4372  1.5282  0.6408
 8360LIG    H3052570   1.265   7.779   2.962 -0.5203 -0.2124 -0.5698
 8360LIG    H3152571   1.356   7.634   2.994 -0.6222  0.0195  0.3978
 8360LIG    H3252572   1.497   8.167   2.329 -0.9839 -3.2524 -2.1629
 8360LIG    H3352573   1.147   7.521   3.056  0.8745 -0.2902  2.2657
 8360LIG    H3452574   1.041   7.658   3.005 -0.1961  0.0476  1.9867
 8360LIG    H3552575   2.152   8.191   2.977 -0.8337  0.5576  0.5717
 8360LIG    H3652576   1.142   7.814   3.175 -0.0687 -0.1289  2.4299
 8360LIG    H3752577   1.247   7.696   3.224  1.1792 -0.4355 -1.5768
 8360LIG    H3852578   0.947   7.627   3.216 -1.8765  0.8058  2.2326
 8360LIG    H3952579   1.031   7.705   3.360 -1.4194  2.7989 -1.7128
 8360LIG    H4052580   1.076   7.540   3.302 -0.9329 -0.7583 -2.0787
 8361LIG     O152581   0.055   2.273   1.855  0.0125  0.5246 -0.1711
 8361LIG     O252582   8.000   2.185   2.072 -0.1051 -0.2221 -0.2944
 8361LIG     O352583   8.302   2.550   2.621  0.6426  0.0195 -0.1512
 8361LIG     C152584   8.338   2.325   2.199  1.0875 -0.9058  0.2035
 8361LIG     C252585   8.292   2.229   2.084  0.2857  0.7767 -0.4026
 8361LIG     C352586   8.414   2.444   2.135  0.0413  0.6778  0.2586
 8361LIG     C452587   8.400   2.185   1.977  0.0697 -0.3761 -0.8653
 8361LIG     C552588   8.476   2.305   1.931 -0.7257 -0.6807 -0.8390
 8361LIG     C652589   8.527   2.407   2.039 -0.0444 -0.4083 -0.1592
 8361LIG     C752590   8.209   2.358   2.287  1.3156 -0.3542  0.0408
 8361LIG     C852591   8.217   2.101   2.143  0.0362 -0.0595  0.0056
 8361LIG     C952592   8.219   2.472   2.397  0.1308  0.0079 -0.6551
 8361LIG    C1052593   8.020   1.780   2.353 -0.0559  0.0903 -0.1232
 8361LIG    C1152594   8.079   2.087   2.134  0.1034  0.4555 -0.4492
 8361LIG    C1252595   8.292   2.002   2.212  0.0427 -0.3069 -0.2949
 8361LIG    C1352596   8.093   1.884   2.273 -0.1379 -0.3387 -0.0367
 8361LIG    C1452597   7.929   1.855   2.455  0.1936 -0.2465 -0.0016
 8361LIG    C1552598   8.015   1.985   2.210 -0.7387 -0.0124  0.4563
 8361LIG    C1652599   8.231   1.889   2.266 -0.6473  0.4742 -0.0550
 8361LIG    C1752600   8.301   2.437   2.526 -0.0513 -0.1813  0.1072
 8361LIG    C1852601   8.113   1.678   2.429  0.2935 -0.0940 -0.0384
 8361LIG    C1952602   7.928   1.694   2.258  0.2540 -0.0990 -0.6945
 8361LIG    C2052603   8.000   1.957   2.548 -0.6606 -0.0239  0.6972
 8361LIG    C2152604   7.905   2.005   2.650  0.5517 -0.2571 -0.6684
 8361LIG    C2252605   7.974   2.110   2.746  0.5030  0.4230  0.5962
 8361LIG    C2352606   7.877   2.205   2.825 -0.0805 -0.4089 -0.4305
 8361LIG    C2452607   7.946   2.293   2.921 -0.1182  0.2796 -0.4678
 8361LIG     H152608   8.410   2.265   2.259 -0.1769 -0.4690  2.2699
 8361LIG     H252609   8.225   2.294   2.023  3.0695  2.8959 -1.4563
 8361LIG     H352610   8.454   2.505   2.220 -0.3087 -0.7785  1.5112
 8361LIG     H452611   8.340   2.508   2.084 -0.4690 -1.2960 -1.6043
 8361LIG     H552612   8.352   2.126   1.896 -0.0712 -0.5492 -0.6598
 8361LIG     H652613   8.474   2.114   2.022  1.0334  1.5005  0.6568
 8361LIG     H752614   8.397   2.356   1.871 -1.4411  0.2826  0.8546
 8361LIG     H852615   0.089   2.385   2.088 -1.1828 -0.5695  2.1372
 8361LIG     H952616   0.005   2.504   1.986  1.5882  0.3214  1.5057
 8361LIG    H1052617   8.171   2.270   2.343  0.7181  0.0133  0.2222
 8361LIG    H1152618   8.137   2.396   2.212  1.2871 -0.6111 -0.0585
 8361LIG    H1252619   8.114   2.493   2.424  0.4018  0.1502  0.3051
 8361LIG    H1352620   8.263   2.566   2.357 -0.0416  0.2909 -0.1902
 8361LIG    H1452621   8.398   2.013   2.226 -0.2940 -0.0001  2.5212
 8361LIG    H1552622   0.103   2.352   1.831 -0.3671 -0.0777 -3.4508
 8361LIG    H1652623   7.880   1.783   2.523 -0.5530 -0.2788 -0.5692
 8361LIG    H1752624   7.851   1.905   2.395 -0.3494 -0.0799  0.8256
 8361LIG    H1852625   7.907   1.976   2.202 -0.6249  0.2232 -2.9927
 8361LIG    H1952626   8.293   1.821   2.322 -1.3124  1.2183  1.6485
 8361LIG    H2052627   8.260   2.350   2.583  1.0615  0.5479  2.1065
 8361LIG    H2152628   8.407   2.423   2.498  0.7672  1.9894  1.8862
 8361LIG    H2252629   8.056   1.609   2.494 -3.4135  1.8923 -0.9210
 8361LIG    H2352630   8.178   1.731   2.502  0.9012 -0.8447 -0.0253
 8361LIG    H2452631   8.170   1.618   2.356 -1.7034 -1.8257 -0.2551
 8361LIG    H2552632   7.993   1.647   2.181  3.2007  1.5563  0.6282
 8361LIG    H2652633   7.849   1.761   2.217  0.2540 -0.9792 -2.2070
 8361LIG    H2752634   7.883   1.610   2.314 -0.1415  0.4905 -0.1171
 8361LIG    H2852635   8.044   2.038   2.487  0.4429 -1.4631 -0.4664
 8361LIG    H2952636   8.074   1.898   2.606 -1.8305 -2.3134  0.0119
 8361LIG    H3052637   7.854   1.916   2.692  0.9869 -1.4835 -2.6042
 8361LIG    H3152638   7.832   2.057   2.583  3.3164 -1.1722 -4.7918
 8361LIG    H3252639   7.908   2.163   2.083  0.0146 -1.8208 -1.9858
 8361LIG    H3352640   8.042   2.166   2.677 -0.1254 -1.1584 -1.4190
 8361LIG    H3452641   8.043   2.066   2.821  0.9681 -0.5181 -0.3565
 8361LIG    H3552642   8.335   2.626   2.572  2.1466 -0.5828 -0.1394
 8361LIG    H3652643   7.814   2.137   2.886  2.0175 -2.1080 -0.0430
 8361LIG    H3752644   7.811   2.257   2.753  0.5689 -0.0223 -0.7560
 8361LIG    H3852645   7.873   2.358   2.973 -1.5688 -1.6700  0.0574
 8361LIG    H3952646   8.028   2.355   2.880 -0.3832  0.7189 -0.3345
 8361LIG    H4052647   7.985   2.246   3.014  0.0688  0.0935 -0.6376
 8362LIG     O152648   6.484   6.392   2.142 -0.7956  0.0496 -0.3139
 8362LIG     O252649   5.894   6.273   2.098 -0.0134 -0.0691  0.0565
 8362LIG     O352650   5.689   6.757   2.011  0.1823  0.1803 -0.3933
 8362LIG     C152651   6.133   6.596   2.234 -0.1037 -0.4170  0.6276
 8362LIG     C252652   6.120   6.448   2.202  0.4078  0.4753 -0.0196
 8362LIG     C352653   6.222   6.654   2.124 -0.1560 -0.0829 -0.3748
 8362LIG     C452654   6.255   6.378   2.213 -0.2773  0.0641 -1.2307
 8362LIG     C552655   6.353   6.440   2.114 -0.7364  0.2374 -0.1337
 8362LIG     C652656   6.366   6.592   2.129  0.7115 -0.0741  0.6590
 8362LIG     C752657   5.997   6.682   2.245 -0.1704 -0.5397  0.0871
 8362LIG     C852658   6.031   6.367   2.291 -0.7009  0.2846 -0.0629
 8362LIG     C952659   5.904   6.684   2.122  0.5425  0.3758 -0.0889
 8362LIG    C1052660   5.753   6.170   2.559 -0.0427  0.2124  0.8458
 8362LIG    C1152661   5.918   6.297   2.238 -0.1042  0.1379 -0.0672
 8362LIG    C1252662   6.053   6.373   2.430  0.1833  0.4112 -0.0298
 8362LIG    C1352663   5.852   6.241   2.466  0.0734 -0.2031 -0.1000
 8362LIG    C1452664   5.795   6.184   2.709  0.3695 -0.1569 -0.1163
 8362LIG    C1552665   5.836   6.238   2.331  0.2473  0.7987  0.3711
 8362LIG    C1652666   5.963   6.312   2.516  0.2028  0.0799  0.1468
 8362LIG    C1752667   5.779   6.772   2.129  1.1061 -0.3656 -0.0253
 8362LIG    C1852668   5.747   6.021   2.516 -0.5075 -0.0051 -0.4501
 8362LIG    C1952669   5.612   6.240   2.536  0.0561 -0.4509  0.1865
 8362LIG    C2052670   5.701   6.106   2.814 -0.7576  0.4473 -0.1144
 8362LIG    C2152671   5.746   6.140   2.955  0.1645 -0.0897  0.1152
 8362LIG    C2252672   5.756   6.289   2.997  0.5531  0.0717  0.3184
 8362LIG    C2352673   5.762   6.312   3.150 -0.0075  0.5042  0.0047
 8362LIG    C2452674   5.776   6.466   3.171 -0.5863 -0.2465  0.1700
 8362LIG     H152675   6.181   6.612   2.333 -1.5239  1.5764  1.0660
 8362LIG     H252676   6.088   6.446   2.095  0.0219  0.2688  0.0960
 8362LIG     H352677   6.219   6.765   2.134  0.8973 -0.1896  1.6659
 8362LIG     H452678   6.181   6.632   2.023  0.9330 -0.8629 -0.6674
 8362LIG     H552679   6.236   6.272   2.187  2.2081 -0.1378 -2.4695
 8362LIG     H652680   6.300   6.401   2.311 -0.5207 -0.4035 -1.0087
 8362LIG     H752681   6.319   6.415   2.012  1.6931  1.2713 -1.2743
 8362LIG     H852682   6.416   6.634   2.219  2.0035  0.0179 -0.0800
 8362LIG     H952683   6.424   6.631   2.043 -1.7118 -1.4679 -1.7416
 8362LIG    H1052684   6.016   6.790   2.266  0.0287 -0.8566  1.6601
 8362LIG    H1152685   5.939   6.637   2.328  2.7528 -2.5100  1.2345
 8362LIG    H1252686   5.872   6.580   2.102  0.2920  0.0115  1.9904
 8362LIG    H1352687   5.957   6.723   2.033 -0.7365  1.2908 -0.4809
 8362LIG    H1452688   6.142   6.414   2.475  0.0494  0.5008  0.1555
 8362LIG    H1552689   6.495   6.310   2.093  2.7839 -0.9128  1.7452
 8362LIG    H1652690   5.804   6.289   2.743  1.4846 -0.2238 -0.1670
 8362LIG    H1752691   5.894   6.133   2.717  0.6449  0.1059 -1.6395
 8362LIG    H1852692   5.751   6.182   2.296  0.1680  0.4962  1.0353
 8362LIG    H1952693   5.974   6.320   2.624  1.6503  1.4573 -0.0630
 8362LIG    H2052694   5.733   6.751   2.228  1.9214  0.7309  0.6018
 8362LIG    H2152695   5.809   6.876   2.153 -1.2448  0.2843  0.2968
 8362LIG    H2252696   5.700   6.016   2.416  1.3980 -1.2844 -1.3480
 8362LIG    H2352697   5.669   5.967   2.574 -0.6606 -0.2508 -0.8822
 8362LIG    H2452698   5.849   5.976   2.521  0.0286  1.1242 -0.8424
 8362LIG    H2552699   5.536   6.190   2.600 -0.3790  1.1979  1.0174
 8362LIG    H2652700   5.580   6.229   2.431  1.5530 -0.9875 -0.2413
 8362LIG    H2752701   5.620   6.348   2.558  0.3905 -0.2602 -0.8387
 8362LIG    H2852702   5.716   5.997   2.799 -1.2961  0.1724  1.2623
 8362LIG    H2952703   5.591   6.124   2.808 -0.7879  0.5415  0.6461
 8362LIG    H3052704   5.852   6.109   2.967  0.2971  0.9035  1.7870
 8362LIG    H3152705   5.677   6.083   3.021 -0.3015 -0.5935 -0.7915
 8362LIG    H3252706   5.802   6.248   2.091  0.1093 -0.6493  0.4258
 8362LIG    H3352707   5.665   6.339   2.957  1.1117 -0.0584 -1.1713
 8362LIG    H3452708   5.845   6.343   2.960  0.6692 -0.0071  0.4818
 8362LIG    H3552709   5.658   6.668   2.030  0.1015  0.4385  0.8054
 8362LIG    H3652710   5.847   6.256   3.194 -1.7006 -1.0012  1.5603
 8362LIG    H3752711   5.677   6.268   3.206  0.0047  0.9007  0.3344
 8362LIG    H3852712   5.684   6.514   3.134 -1.0132 -0.6261  0.7253
 8362LIG    H3952713   5.855   6.506   3.104 -2.9084  0.2725 -2.4334
 8362LIG    H4052714   5.789   6.498   3.277  0.7976  1.4517 -0.4647
 8363LIG     O152715   2.284   5.002   1.407  0.0656 -0.7267  0.4536
 8363LIG     O252716   2.454   4.787   1.973 -0.0694  0.1728  0.0210
 8363LIG     O352717   2.835   4.331   1.584  0.7114 -0.4088 -0.7530
 8363LIG     C152718   2.469   4.672   1.595  0.0182 -0.4447 -0.2835
 8363LIG     C252719   2.388   4.770   1.682  0.0801 -0.1980  0.3868
 8363LIG     C352720   2.544   4.750   1.485 -0.5565 -0.4426  0.1108
 8363LIG     C452721   2.293   4.849   1.589  0.1078  0.0953  0.5978
 8363LIG     C552722   2.372   4.932   1.482 -0.3080 -0.4346 -0.4577
 8363LIG     C652723   2.459   4.843   1.396 -0.1934  0.1145  0.0684
 8363LIG     C752724   2.570   4.593   1.683 -0.3140 -0.1539 -0.3134
 8363LIG     C852725   2.326   4.689   1.787 -0.1228 -0.2614 -0.4575
 8363LIG     C952726   2.663   4.506   1.597 -0.5157 -0.5462 -0.4308
 8363LIG    C1052727   2.093   4.466   2.092 -0.7551 -0.8012  0.7128
 8363LIG    C1152728   2.354   4.701   1.925  0.5456  0.1915 -0.5102
 8363LIG    C1252729   2.226   4.599   1.747 -0.4160 -0.2126  0.2476
 8363LIG    C1352730   2.184   4.536   1.983 -0.1485 -0.3842 -0.3570
 8363LIG    C1452731   2.031   4.576   2.185 -0.9323 -0.7503 -0.1221
 8363LIG    C1552732   2.287   4.629   2.014 -0.3697  0.3797  0.6326
 8363LIG    C1652733   2.156   4.521   1.842 -0.1120 -0.0293 -0.3754
 8363LIG    C1752734   2.765   4.418   1.674  0.2980 -0.1491 -0.7487
 8363LIG    C1852735   2.184   4.388   2.183  0.1338  0.4013  0.9384
 8363LIG    C1952736   1.978   4.375   2.039 -0.6643  0.6425 -1.1278
 8363LIG    C2052737   1.935   4.669   2.114  0.6238  0.8853  0.5518
 8363LIG    C2152738   1.918   4.806   2.184 -0.0929 -0.6043 -0.3975
 8363LIG    C2252739   1.830   4.898   2.104 -0.1031  0.7012  0.3644
 8363LIG    C2352740   1.795   5.034   2.169 -0.6107  1.0529  0.1441
 8363LIG    C2452741   1.708   5.125   2.079 -0.1438  0.6296 -0.2688
 8363LIG     H152742   2.410   4.595   1.540  1.9323 -1.4718 -0.9884
 8363LIG     H252743   2.461   4.845   1.719  0.8613  0.1336 -1.6783
 8363LIG     H352744   2.596   4.677   1.420 -0.6707 -1.0418  0.6770
 8363LIG     H452745   2.613   4.819   1.539 -2.8216  1.4310  0.8251
 8363LIG     H552746   2.230   4.921   1.647  1.5139  1.3958  0.5674
 8363LIG     H652747   2.220   4.779   1.542  0.2319  0.9692 -0.9597
 8363LIG     H752748   2.449   4.999   1.526 -0.1476 -0.5889 -0.5027
 8363LIG     H852749   2.386   4.777   1.344 -0.5998  0.5021  0.1374
 8363LIG     H952750   2.527   4.900   1.330  0.8320 -1.4747 -0.3010
 8363LIG    H1052751   2.521   4.533   1.763 -2.7407  0.3608 -1.3111
 8363LIG    H1152752   2.635   4.664   1.738  1.9048 -2.8857  0.8558
 8363LIG    H1252753   2.724   4.565   1.526  0.3028 -1.9813 -0.9712
 8363LIG    H1352754   2.598   4.438   1.537  1.1362 -1.1194 -1.6391
 8363LIG    H1452755   2.200   4.575   1.645 -1.1706 -1.9973  0.8062
 8363LIG    H1552756   2.234   4.933   1.363 -0.2300  0.4066 -1.0631
 8363LIG    H1652757   2.111   4.645   2.222 -3.0229  1.6692  0.1482
 8363LIG    H1752758   1.983   4.535   2.276 -0.9279 -1.5228 -0.4659
 8363LIG    H1852759   2.313   4.643   2.118 -0.1654  1.4846  0.4413
 8363LIG    H1952760   2.091   4.441   1.810  0.3079 -0.7754  0.5987
 8363LIG    H2052761   2.838   4.489   1.717  2.1898 -2.6057  0.3674
 8363LIG    H2152762   2.707   4.373   1.756 -0.2903  1.8761 -0.0034
 8363LIG    H2252763   2.212   4.291   2.136 -0.6731  1.0128 -0.8852
 8363LIG    H2352764   2.128   4.361   2.275 -3.4587 -0.6390 -1.3449
 8363LIG    H2452765   2.279   4.437   2.212  0.6683 -1.3829  2.3947
 8363LIG    H2552766   1.910   4.335   2.117 -1.0986  1.3152 -1.1550
 8363LIG    H2652767   2.024   4.292   1.982  1.1743  1.2363 -0.5652
 8363LIG    H2752768   1.914   4.430   1.966 -1.0360  1.5810 -0.1196
 8363LIG    H2852769   1.837   4.619   2.103  0.3535  1.1687  1.5111
 8363LIG    H2952770   1.961   4.680   2.007 -3.7667  2.0548 -0.5747
 8363LIG    H3052771   2.014   4.859   2.202 -0.4976  1.0883 -2.8076
 8363LIG    H3152772   1.878   4.780   2.285  3.9607 -2.0661  1.0432
 8363LIG    H3252773   2.456   4.861   1.912 -0.6384  2.0541  2.1461
 8363LIG    H3352774   1.742   4.840   2.069  1.9449 -2.8412  0.5837
 8363LIG    H3452775   1.895   4.926   2.018  0.1869 -0.3844  0.2106
 8363LIG    H3552776   2.898   4.290   1.643 -0.0411 -0.2790  0.1586
 8363LIG    H3652777   1.892   5.083   2.192  0.8037 -1.2370 -0.6201
 8363LIG    H3752778   1.743   5.007   2.263 -0.4713  2.8560  0.7711
 8363LIG    H3852779   1.626   5.068   2.029 -2.1929  0.9242  2.5194
 8363LIG    H3952780   1.776   5.180   2.011  2.9895 -2.5544 -0.0141
 8363LIG    H4052781   1.663   5.210   2.134  1.4324  2.7921 -2.1253
 8364LIG     O152782   3.736   6.826   5.013  0.0627 -0.2158 -0.3322
 8364LIG     O252783   4.141   7.227   4.718 -0.4244 -0.0168  0.0072
 8364LIG     O352784   3.932   7.398   4.429 -0.1582  0.4738 -0.6418
 8364LIG     C152785   3.864   6.953   4.636 -0.0532 -0.1571 -0.0945
 8364LIG     C252786   3.954   7.002   4.753 -1.1256 -0.1978 -0.2251
 8364LIG     C352787   3.718   6.981   4.672 -0.5724  0.3396 -0.4671
 8364LIG     C452788   3.920   6.916   4.876 -0.3169  0.1155  0.0222
 8364LIG     C552789   3.767   6.923   4.907 -0.2866 -0.1537 -0.3295
 8364LIG     C652790   3.678   6.893   4.789  0.5729 -1.0099 -0.2867
 8364LIG     C752791   3.913   7.026   4.503 -0.7078 -0.0845 -0.4185
 8364LIG     C852792   4.105   6.981   4.716 -0.1376  0.5515  0.5053
 8364LIG     C952793   3.885   7.172   4.504  0.1122  0.3934  0.7709
 8364LIG    C1052794   4.528   6.943   4.605  0.2233  0.4298  0.4746
 8364LIG    C1152795   4.187   7.094   4.692 -0.0367 -0.5471  0.5832
 8364LIG    C1252796   4.168   6.859   4.700 -0.0136  0.1224 -0.7954
 8364LIG    C1352797   4.374   6.959   4.645 -0.2563  0.1147 -0.7451
 8364LIG    C1452798   4.537   6.997   4.459  0.4725  0.5102 -0.3845
 8364LIG    C1552799   4.319   7.085   4.650  0.3936 -0.4159 -0.9783
 8364LIG    C1652800   4.294   6.844   4.668  0.2522  0.1181 -0.0363
 8364LIG    C1752801   3.961   7.257   4.402 -0.3064 -0.4714  0.0027
 8364LIG    C1852802   4.577   6.792   4.607 -0.6083  0.5273  0.1091
 8364LIG    C1952803   4.617   7.025   4.704 -0.2582 -0.0822  0.2393
 8364LIG    C2052804   4.681   7.020   4.404  0.2721  0.0200 -0.6717
 8364LIG    C2152805   4.672   7.075   4.256 -0.3703  0.4863 -0.2759
 8364LIG    C2252806   4.804   7.102   4.190  0.2614 -0.0544  0.6936
 8364LIG    C2352807   4.794   7.077   4.036  0.3851  0.3515 -0.9269
 8364LIG    C2452808   4.923   7.130   3.966  0.6142  0.2148  0.1765
 8364LIG     H152809   3.893   6.848   4.616  0.4812 -0.0935  0.3352
 8364LIG     H252810   3.938   7.109   4.782  0.8962  0.3158 -0.8193
 8364LIG     H352811   3.663   6.944   4.583  0.6789 -0.8697 -0.7735
 8364LIG     H452812   3.700   7.087   4.697  0.9466  0.4084  0.4603
 8364LIG     H552813   3.972   6.935   4.973  0.3890 -2.0508  0.1255
 8364LIG     H652814   3.931   6.811   4.842  0.2841  0.4904 -0.9649
 8364LIG     H752815   3.744   7.024   4.947 -1.6687 -0.9153  0.9399
 8364LIG     H852816   3.688   6.785   4.764  1.7502 -0.9876  0.0229
 8364LIG     H952817   3.573   6.921   4.809  0.5611 -1.6518  0.5698
 8364LIG    H1052818   3.872   6.981   4.410  0.8093  1.3456 -1.8575
 8364LIG    H1152819   4.021   7.001   4.491 -0.0382  2.2456  0.2471
 8364LIG    H1252820   3.893   7.206   4.610 -0.2976 -0.3034  1.0339
 8364LIG    H1352821   3.779   7.180   4.470  0.7289  0.4234 -1.2726
 8364LIG    H1452822   4.107   6.770   4.706  0.7530 -0.4634 -1.3787
 8364LIG    H1552823   3.695   6.873   5.086 -0.9807 -1.9215  0.2398
 8364LIG    H1652824   4.500   7.101   4.448  1.8739  0.8355 -2.9335
 8364LIG    H1752825   4.467   6.941   4.393 -1.1211 -1.1969  2.5372
 8364LIG    H1852826   4.375   7.177   4.642 -2.9873  1.7444 -1.9197
 8364LIG    H1952827   4.321   6.741   4.651 -0.0831  0.3108 -2.0154
 8364LIG    H2052828   4.071   7.244   4.414  0.1039  0.8321 -2.0028
 8364LIG    H2152829   3.940   7.244   4.294  0.5014 -0.0259 -0.2189
 8364LIG    H2252830   4.567   6.752   4.710  2.8495  1.9149  1.1187
 8364LIG    H2352831   4.684   6.786   4.578 -0.8400 -3.1780 -0.4868
 8364LIG    H2452832   4.528   6.718   4.539 -1.5479  0.3625  0.9474
 8364LIG    H2552833   4.719   7.017   4.661 -0.3765  1.9973 -0.5812
 8364LIG    H2652834   4.605   6.982   4.805 -0.5183 -2.4493 -0.7159
 8364LIG    H2752835   4.585   7.131   4.702 -3.4662 -0.9236  1.2932
 8364LIG    H2852836   4.735   6.922   4.403  0.2943  0.0312 -1.3505
 8364LIG    H2952837   4.732   7.094   4.469  1.3103  1.3142 -2.8147
 8364LIG    H3052838   4.621   7.173   4.250 -0.5331  0.3065 -2.7250
 8364LIG    H3152839   4.600   7.007   4.206 -1.8449  1.0330  1.0095
 8364LIG    H3252840   4.045   7.223   4.729 -0.3137  0.8393  1.4328
 8364LIG    H3352841   4.884   7.038   4.235 -0.3783 -0.4362  1.3001
 8364LIG    H3452842   4.841   7.204   4.211 -0.2520  0.3171 -0.1513
 8364LIG    H3552843   3.977   7.416   4.511  1.0146 -1.8275 -0.7180
 8364LIG    H3652844   4.699   7.122   4.001 -0.5044  0.5716  1.5337
 8364LIG    H3752845   4.786   6.967   4.023  2.1533 -0.3661  2.6475
 8364LIG    H3852846   4.922   7.124   3.855  0.4179  0.1847  0.1802
 8364LIG    H3952847   5.011   7.086   4.017  0.7345 -1.2601 -1.2317
 8364LIG    H4052848   4.928   7.237   3.995  0.1188 -0.3122  2.3417
 8365LIG     O152849   0.558   1.168   4.849  0.0018  0.4236 -0.1585
 8365LIG     O252850   0.805   1.704   4.719 -0.1866 -0.3781  0.0671
 8365LIG     O352851   0.078   1.840   4.946 -0.1897 -0.4826  0.1262
 8365LIG     C152852   0.437   1.576   4.869 -0.3868  0.0446 -0.1441
 8365LIG     C252853   0.569   1.547   4.796  0.2667 -0.2777  0.1111
 8365LIG     C352854   0.427   1.483   4.999 -0.6277  1.1081  0.5295
 8365LIG     C452855   0.568   1.392   4.765 -0.0227 -0.2939 -0.4507
 8365LIG     C552856   0.563   1.303   4.894 -0.5126  1.2292  0.0669
 8365LIG     C652857   0.434   1.332   4.978 -0.1880 -0.5441 -0.1942
 8365LIG     C752858   0.447   1.722   4.917  0.5521 -0.2001  0.3871
 8365LIG     C852859   0.583   1.625   4.663 -0.9154 -0.7322  0.4443
 8365LIG     C952860   0.311   1.782   4.974 -0.3825 -0.5176 -0.3785
 8365LIG    C1052861   0.630   1.840   4.290  0.2354  0.2350  0.3937
 8365LIG    C1152862   0.697   1.695   4.631 -0.5930 -0.0970  0.0217
 8365LIG    C1252863   0.475   1.620   4.575 -0.5928  0.8453  0.4370
 8365LIG    C1352864   0.608   1.762   4.414 -0.7046  0.7079 -0.6180
 8365LIG    C1452865   0.750   1.780   4.209 -0.2221 -0.4261 -0.4032
 8365LIG    C1552866   0.707   1.769   4.508 -0.1293  0.5620  0.2870
 8365LIG    C1652867   0.497   1.678   4.439  0.5694 -0.1102 -0.4358
 8365LIG    C1752868   0.187   1.778   4.877 -0.2420 -0.4147 -0.5516
 8365LIG    C1852869   0.657   1.988   4.314 -0.6586  0.0566  0.1895
 8365LIG    C1952870   0.511   1.844   4.196 -0.3817 -0.2173 -0.1013
 8365LIG    C2052871   0.748   1.627   4.190  0.1973 -0.3539 -0.8738
 8365LIG    C2152872   0.855   1.589   4.082  0.9156  0.3258 -0.2472
 8365LIG    C2252873   0.986   1.560   4.153 -0.3521  0.6484  0.2867
 8365LIG    C2352874   1.094   1.497   4.061 -0.2463  0.7595  0.5732
 8365LIG    C2452875   1.112   1.561   3.922 -0.3557 -0.1236 -0.4662
 8365LIG     H152876   0.349   1.558   4.804 -0.3074  1.6646 -0.7421
 8365LIG     H252877   0.656   1.567   4.863  0.5615  0.0156 -0.3577
 8365LIG     H352878   0.327   1.512   5.039 -2.1749 -1.8927 -0.8067
 8365LIG     H452879   0.511   1.519   5.062  0.2668  0.7402 -0.4219
 8365LIG     H552880   0.650   1.365   4.696 -1.0334  0.5505 -2.0314
 8365LIG     H652881   0.478   1.367   4.705 -0.9932  1.2531  0.3005
 8365LIG     H752882   0.656   1.305   4.955 -0.3310 -2.4933  0.0901
 8365LIG     H852883   0.350   1.298   4.915 -1.1770 -2.2056  1.8794
 8365LIG     H952884   0.423   1.285   5.079 -2.7891 -2.0245 -1.0723
 8365LIG    H1052885   0.470   1.786   4.829 -1.2892 -0.4168 -0.2922
 8365LIG    H1152886   0.525   1.732   4.995  1.4018 -1.9273 -0.1886
 8365LIG    H1252887   0.336   1.881   5.019  2.1593 -0.5834 -1.4755
 8365LIG    H1352888   0.285   1.720   5.063 -0.4829 -1.0192 -0.7583
 8365LIG    H1452889   0.386   1.563   4.597 -0.0538  0.0382  0.5822
 8365LIG    H1552890   0.631   1.122   4.891 -0.1256 -0.9202 -1.3339
 8365LIG    H1652891   0.841   1.809   4.265 -2.3286  2.0301  2.0889
 8365LIG    H1752892   0.747   1.820   4.106 -0.6124 -0.8421 -0.5585
 8365LIG    H1852893   0.803   1.816   4.492  0.8365 -1.3346  0.2030
 8365LIG    H1952894   0.413   1.675   4.372  0.6733 -0.5493 -0.5439
 8365LIG    H2052895   0.207   1.832   4.782  1.4841 -1.3735 -0.7883
 8365LIG    H2152896   0.168   1.671   4.854  2.5641 -1.1457  0.1216
 8365LIG    H2252897   0.576   2.038   4.371 -1.0375  0.5871 -0.7921
 8365LIG    H2352898   0.677   2.043   4.219 -0.8179 -0.8218 -0.3618
 8365LIG    H2452899   0.747   2.002   4.378 -1.5642  3.0055  0.9742
 8365LIG    H2552900   0.525   1.906   4.106  1.7644 -1.2183 -0.5309
 8365LIG    H2652901   0.429   1.898   4.247  0.9432  2.2931 -0.4765
 8365LIG    H2752902   0.472   1.743   4.171 -0.4676 -0.2966  0.3354
 8365LIG    H2852903   0.653   1.584   4.154 -0.9837 -0.5435  2.1324
 8365LIG    H2952904   0.777   1.584   4.289 -1.3264  0.3191 -0.1011
 8365LIG    H3052905   0.861   1.663   4.000 -1.4002 -0.7789 -1.5116
 8365LIG    H3152906   0.827   1.494   4.033  0.1917  1.2447 -1.6673
 8365LIG    H3252907   0.867   1.759   4.672 -0.4393  0.4328  0.6701
 8365LIG    H3352908   0.967   1.496   4.242  1.3244  0.6422  0.6736
 8365LIG    H3452909   1.035   1.646   4.203  0.8637 -0.4866  1.0902
 8365LIG    H3552910   0.101   1.931   4.967  1.5380 -0.8019 -0.2561
 8365LIG    H3652911   1.065   1.393   4.035  1.4242  0.8573 -2.1449
 8365LIG    H3752912   1.192   1.500   4.115  0.2131 -0.0064 -0.1985
 8365LIG    H3852913   1.132   1.667   3.949 -1.6089 -0.3886  1.7709
 8365LIG    H3952914   1.023   1.551   3.856 -0.2725  1.8440 -0.9544
 8365LIG    H4052915   1.202   1.514   3.878 -0.5267  0.1875 -1.1699
 8366LIG     O152916   3.744   5.706   4.860 -0.2540  0.2650 -0.4020
 8366LIG     O252917   3.910   6.274   4.861  0.3731 -0.1278 -0.2920
 8366LIG     O352918   3.523   6.529   4.741 -0.0761  0.6609  0.0831
 8366LIG     C152919   3.676   6.051   4.618  1.1378  0.2105  0.4956
 8366LIG     C252920   3.783   6.058   4.718  0.0139 -0.7930 -0.0693
 8366LIG     C352921   3.556   5.974   4.682  0.5629 -0.3051 -0.1774
 8366LIG     C452922   3.825   5.919   4.770 -0.1840  0.2530  0.1197
 8366LIG     C552923   3.704   5.841   4.832 -0.5168  0.9263 -0.2368
 8366LIG     C652924   3.596   5.840   4.733  0.1973  0.0926 -0.2667
 8366LIG     C752925   3.627   6.192   4.574 -0.0359 -0.3829 -0.1872
 8366LIG     C852926   3.906   6.134   4.665 -0.5962 -0.9645  0.3161
 8366LIG     C952927   3.602   6.300   4.684  0.2365  0.4297 -0.7248
 8366LIG    C1052928   4.214   6.374   4.485 -0.7491  0.0314 -0.3121
 8366LIG    C1152929   3.954   6.241   4.732  0.3747 -0.3661 -0.3993
 8366LIG    C1252930   3.968   6.087   4.549 -0.1928 -0.3614 -0.5330
 8366LIG    C1352931   4.116   6.279   4.549 -0.6168  0.0887 -1.1613
 8366LIG    C1452932   4.143   6.459   4.374  0.0873 -0.2711  0.2944
 8366LIG    C1552933   4.065   6.307   4.682  0.0475 -0.2653  0.1395
 8366LIG    C1652934   4.066   6.157   4.488  0.5724  0.2031  0.0770
 8366LIG    C1752935   3.564   6.435   4.637  0.4710 -0.3913  0.1285
 8366LIG    C1852936   4.331   6.287   4.422  0.2798  0.4692 -0.2678
 8366LIG    C1952937   4.286   6.471   4.580  0.7681  0.5874  0.4061
 8366LIG    C2052938   4.024   6.550   4.423  0.0278  0.0725 -0.7139
 8366LIG    C2152939   3.987   6.659   4.327  0.0054 -0.2073  0.0142
 8366LIG    C2252940   3.937   6.593   4.195 -0.7719 -0.2491  0.0868
 8366LIG    C2352941   3.915   6.690   4.074 -0.3616  0.2707  0.7829
 8366LIG    C2452942   3.862   6.833   4.103  0.0727 -0.2831 -0.9440
 8366LIG     H152943   3.700   5.991   4.527  1.5360 -1.2019  1.5113
 8366LIG     H252944   3.739   6.112   4.804 -1.2216  0.8575 -1.6595
 8366LIG     H352945   3.473   5.966   4.608  0.3473 -1.1619  0.1401
 8366LIG     H452946   3.512   6.037   4.762 -0.0913  1.1075 -1.6019
 8366LIG     H552947   3.901   5.928   4.850  0.9681 -0.4783 -0.8761
 8366LIG     H652948   3.862   5.849   4.692 -0.8805 -0.4854  0.4408
 8366LIG     H752949   3.663   5.887   4.925  0.0777 -2.1883  1.7478
 8366LIG     H852950   3.616   5.774   4.646  0.9997  1.9062 -1.4998
 8366LIG     H952951   3.505   5.803   4.786  1.2409 -1.3602  0.6087
 8366LIG    H1052952   3.529   6.180   4.524  0.2532 -0.1924 -0.8046
 8366LIG    H1152953   3.694   6.234   4.496  0.7919 -3.1577 -1.0882
 8366LIG    H1252954   3.688   6.310   4.753  0.6793 -0.3577 -1.1553
 8366LIG    H1352955   3.524   6.251   4.747  1.1071 -0.5765 -0.4026
 8366LIG    H1452956   3.920   6.003   4.500  2.1231 -2.4200  0.5515
 8366LIG    H1552957   3.810   5.710   4.930  1.2563 -0.2217 -1.7426
 8366LIG    H1652958   4.115   6.396   4.287  2.3317 -0.9280 -0.0146
 8366LIG    H1752959   4.218   6.534   4.339 -1.2007  0.3535 -1.2394
 8366LIG    H1852960   4.102   6.386   4.746 -2.9022  1.5688 -0.2515
 8366LIG    H1952961   4.106   6.122   4.394  0.6652  0.8139 -0.1158
 8366LIG    H2052962   3.653   6.479   4.588 -0.4375  1.8032  0.3289
 8366LIG    H2152963   3.484   6.432   4.560 -0.2769  1.9426  0.7111
 8366LIG    H2252964   4.295   6.214   4.347 -0.6785 -0.7994  1.3589
 8366LIG    H2352965   4.373   6.239   4.513  0.2818  1.3978  0.2399
 8366LIG    H2452966   4.407   6.351   4.372 -1.6221  1.1752 -2.4047
 8366LIG    H2552967   4.346   6.402   4.642 -0.0872 -0.9778 -0.4378
 8366LIG    H2652968   4.215   6.535   4.638 -0.2807  1.1856 -1.4419
 8366LIG    H2752969   4.346   6.544   4.521  2.8797 -0.7994  0.7658
 8366LIG    H2852970   4.062   6.616   4.504 -1.7964  1.0678 -0.6000
 8366LIG    H2952971   3.929   6.504   4.460 -0.6759  2.5896  0.8895
 8366LIG    H3052972   4.079   6.721   4.316 -0.4707  0.8226  1.5741
 8366LIG    H3152973   3.909   6.726   4.369 -0.3710 -0.5251 -0.1760
 8366LIG    H3252974   3.968   6.342   4.898  0.3712  0.0427 -0.5956
 8366LIG    H3352975   3.837   6.551   4.221 -0.7935  0.5515  1.3681
 8366LIG    H3452976   4.002   6.512   4.154  0.2668  0.2742  0.6537
 8366LIG    H3552977   3.602   6.555   4.788 -1.2310  0.6238  2.1509
 8366LIG    H3652978   3.834   6.641   4.016  0.7799 -1.0260  0.2447
 8366LIG    H3752979   4.015   6.692   4.026 -1.2205  0.7759 -1.0710
 8366LIG    H3852980   3.838   6.882   4.007  0.3169  2.8525  0.4620
 8366LIG    H3952981   3.923   6.900   4.168 -3.0466  2.7932 -0.8786
 8366LIG    H4052982   3.765   6.821   4.156 -0.1790 -2.6136 -1.8049
 8367LIG     O152983   0.174   4.180   5.087 -0.0424  0.2513 -0.1904
 8367LIG     O252984   8.114   4.330   4.863 -0.2087  0.1555  0.1493
 8367LIG     O352985   7.874   3.976   5.069 -0.1330 -0.0747  0.1818
 8367LIG     C152986   8.348   4.013   4.913  0.3019 -0.1162 -0.6213
 8367LIG     C252987   8.369   4.169   4.916  0.4050  0.2299 -0.6247
 8367LIG     C352988   8.411   3.951   5.043  0.7911  0.2516 -0.0256
 8367LIG     C452989   8.514   4.217   4.942  0.3462  0.3459  0.5472
 8367LIG     C552990   0.036   4.138   5.069  0.0047 -0.1197  0.6041
 8367LIG     C652991   0.025   3.980   5.072  0.4411 -0.2095  0.9948
 8367LIG     C752992   8.198   3.980   4.882  0.0073  0.6728  0.4300
 8367LIG     C852993   8.329   4.232   4.775 -0.9612  0.0589 -0.2613
 8367LIG     C952994   8.108   3.984   5.003 -0.1162 -0.3220  0.1064
 8367LIG    C1052995   8.274   4.419   4.384  0.8184 -0.1514  0.2245
 8367LIG    C1152996   8.214   4.315   4.761  0.5720  0.0892 -0.2508
 8367LIG    C1252997   8.414   4.205   4.663 -0.0449 -0.1691 -0.3909
 8367LIG    C1352998   8.294   4.355   4.523  0.1033  0.4291  0.2378
 8367LIG    C1452999   8.129   4.384   4.330  0.1269  0.1745  0.1114
 8367LIG    C1553000   8.199   4.370   4.630  0.2613 -0.1938  0.0557
 8367LIG    C1653001   8.407   4.273   4.542  0.0466  0.3497 -0.4914
 8367LIG    C1753002   7.961   3.972   4.957  0.3222 -0.2634 -0.1128
 8367LIG    C1853003   8.362   4.366   4.268 -0.0980 -0.0944  0.1035
 8367LIG    C1953004   8.288   4.571   4.395  0.5933  0.6804  0.2691
 8367LIG    C2053005   8.072   4.465   4.213  0.4823 -0.2197 -0.3604
 8367LIG    C2153006   7.936   4.425   4.162  0.6681 -0.2356 -0.0876
 8367LIG    C2253007   7.898   4.490   4.029 -0.8379  0.1911  0.1146
 8367LIG    C2353008   7.765   4.442   3.975  0.5233  0.6633 -0.4920
 8367LIG    C2453009   7.753   4.441   3.825  0.3182  0.5471 -0.6823
 8367LIG     H153010   8.409   3.983   4.825  0.6667  0.5851 -0.6166
 8367LIG     H253011   8.308   4.214   4.998 -0.2796 -3.2622  0.9865
 8367LIG     H353012   8.398   3.840   5.048  0.6035  0.3162  1.4026
 8367LIG     H453013   8.359   3.989   5.134  1.3774  0.7423  0.1067
 8367LIG     H553014   8.517   4.326   4.959  0.2790  0.4059  0.1671
 8367LIG     H653015   0.049   4.186   4.861 -0.2805 -0.1497  0.1797
 8367LIG     H753016   8.511   4.184   5.150  2.5719  3.2689  0.8071
 8367LIG     H853017   0.083   3.948   4.982 -0.0075 -0.9296  0.9558
 8367LIG     H953018   0.067   3.946   5.169 -1.1340 -0.6706  1.5396
 8367LIG    H1053019   8.210   3.877   4.842  2.7563 -0.0112  2.6602
 8367LIG    H1153020   8.149   4.039   4.802  0.0498  0.0017 -0.0967
 8367LIG    H1253021   8.126   4.077   5.061 -1.1155  0.4571 -0.7897
 8367LIG    H1353022   8.132   3.894   5.064 -0.8709 -0.9768 -0.5319
 8367LIG    H1453023   8.498   4.139   4.676  0.8106  0.1006 -3.6742
 8367LIG    H1553024   0.166   4.275   5.077  2.7177  0.8371  1.8668
 8367LIG    H1653025   8.046   4.397   4.403 -0.2266  0.7033 -0.3696
 8367LIG    H1753026   8.121   4.276   4.305  3.3145  0.0707 -0.8203
 8367LIG    H1853027   8.117   4.438   4.611  1.4519  1.2961  0.0885
 8367LIG    H1953028   8.479   4.256   4.463  0.5840  1.3553 -0.2289
 8367LIG    H2053029   7.933   4.052   4.886 -0.0881  3.3557  3.6926
 8367LIG    H2153030   7.946   3.869   4.919 -1.7424 -0.1475  0.2571
 8367LIG    H2253031   8.346   4.257   4.258 -1.2253  0.1489 -0.9523
 8367LIG    H2353032   8.467   4.392   4.293  0.2359 -1.1145 -0.2172
 8367LIG    H2453033   8.333   4.421   4.176  0.1658 -1.9366 -1.1305
 8367LIG    H2553034   8.388   4.589   4.438 -0.0083  2.4139  1.0553
 8367LIG    H2653035   8.207   4.619   4.454  0.1690  0.1630  0.1202
 8367LIG    H2753036   8.287   4.618   4.294  2.9810  1.5652  0.6036
 8367LIG    H2853037   8.125   4.446   4.117 -1.4286  1.4303 -1.8276
 8367LIG    H2953038   8.065   4.571   4.246  1.7659 -0.6353  1.3854
 8367LIG    H3053039   7.860   4.439   4.241 -1.8152 -0.5884 -2.2527
 8367LIG    H3153040   7.943   4.315   4.147 -0.0557 -0.5930  1.8879
 8367LIG    H3253041   8.039   4.382   4.834 -0.0532 -0.5142 -1.6015
 8367LIG    H3353042   7.978   4.457   3.960 -0.2561  1.1415  0.3056
 8367LIG    H3453043   7.907   4.601   4.023  0.1827  0.1160  0.0425
 8367LIG    H3553044   7.900   4.058   5.112  2.0019 -1.2700  1.3100
 8367LIG    H3653045   7.675   4.498   4.009  0.5646  0.4522 -0.0269
 8367LIG    H3753046   7.747   4.341   4.017 -2.7880  1.4285  0.2265
 8367LIG    H3853047   7.742   4.545   3.788 -0.6727  0.5304 -0.4690
 8367LIG    H3953048   7.668   4.374   3.803  0.1699  0.7860 -0.8473
 8367LIG    H4053049   7.839   4.393   3.774  0.4023  1.3394 -1.3078
 8368LIG     O153050   3.476   1.247   2.001  0.4219  0.4920  0.1282
 8368LIG     O253051   4.100   1.242   2.100 -0.4442  0.6498 -0.1896
 8368LIG     O353052   4.055   0.742   1.631 -0.5675  0.0845  0.4340
 8368LIG     C153053   3.815   1.003   1.988  0.5209 -0.0342 -0.3802
 8368LIG     C253054   3.829   1.134   2.069  0.5697 -0.6352 -0.0764
 8368LIG     C353055   3.684   1.004   1.901 -0.4045  0.3682 -0.1409
 8368LIG     C453056   3.691   1.195   2.102 -0.1191  0.0363 -0.5565
 8368LIG     C553057   3.615   1.244   1.972  0.5477 -0.1216  0.4497
 8368LIG     C653058   3.643   1.143   1.853 -0.3625  0.1892  0.0599
 8368LIG     C753059   3.939   0.986   1.890 -0.0613 -0.5804 -0.2645
 8368LIG     C853060   3.908   1.121   2.195 -0.0608  0.0622  0.7939
 8368LIG     C953061   3.958   0.856   1.816  0.5519  0.4155  0.0216
 8368LIG    C1053062   4.139   1.090   2.568  0.4362  0.0080 -0.2980
 8368LIG    C1153063   4.038   1.178   2.211 -0.3225 -0.1667  0.3282
 8368LIG    C1253064   3.853   1.057   2.311 -0.3327  0.2098  0.2954
 8368LIG    C1353065   4.052   1.123   2.446  0.3673  0.1638  0.1791
 8368LIG    C1453066   4.055   1.041   2.686 -0.9599 -0.0909 -0.6035
 8368LIG    C1553067   4.112   1.176   2.327  0.0105  0.7876  0.7333
 8368LIG    C1653068   3.930   1.056   2.431  0.7411  0.2504 -0.6561
 8368LIG    C1753069   4.054   0.865   1.693 -0.0637  0.7122 -0.2948
 8368LIG    C1853070   4.202   1.220   2.614  0.4360 -0.5686 -0.4254
 8368LIG    C1953071   4.245   0.981   2.537 -0.2980 -0.1988 -1.0741
 8368LIG    C2053072   3.970   1.154   2.761 -0.5399  0.0607 -0.1156
 8368LIG    C2153073   3.862   1.093   2.853 -0.5426  0.4658  0.1595
 8368LIG    C2253074   3.770   1.191   2.924 -0.6992 -0.7394  1.0057
 8368LIG    C2353075   3.844   1.273   3.030  0.2508  0.0737  0.1502
 8368LIG    C2453076   3.750   1.366   3.108  0.0408 -0.2052 -0.0522
 8368LIG     H153077   3.802   0.909   2.046 -0.6973 -0.2752 -1.0070
 8368LIG     H253078   3.870   1.207   1.996 -2.4714 -0.7800 -2.0993
 8368LIG     H353079   3.603   0.955   1.960  0.3417 -1.1974 -0.3815
 8368LIG     H453080   3.693   0.932   1.818  1.2441  0.6545 -0.2291
 8368LIG     H553081   3.691   1.277   2.178 -2.5584  3.1616 -3.6370
 8368LIG     H653082   3.630   1.111   2.143  0.2785 -0.0094 -0.0438
 8368LIG     H753083   3.651   1.344   1.940 -2.4057  0.3356 -1.9218
 8368LIG     H853084   3.567   1.135   1.773 -0.1864 -1.8740  0.0541
 8368LIG     H953085   3.736   1.184   1.807 -1.6502  1.5600 -1.4464
 8368LIG    H1053086   4.035   1.001   1.944 -0.5975  1.1207  0.3010
 8368LIG    H1153087   3.929   1.069   1.816  0.2188 -0.3263 -0.0187
 8368LIG    H1253088   3.863   0.825   1.768  0.1006  0.2233  1.0101
 8368LIG    H1353089   3.988   0.782   1.893 -1.3569  0.9514  1.3392
 8368LIG    H1453090   3.753   1.016   2.308 -0.8685  1.4955 -1.3141
 8368LIG    H1553091   3.446   1.296   1.924 -0.1410 -1.1216 -0.7429
 8368LIG    H1653092   4.123   1.003   2.766 -0.1319  1.2612 -0.6305
 8368LIG    H1753093   3.981   0.960   2.668 -0.5243 -1.4075  2.7366
 8368LIG    H1853094   4.216   1.202   2.339  0.3039  0.1174 -0.3008
 8368LIG    H1953095   3.866   1.016   2.508  1.3959 -1.0994 -0.7826
 8368LIG    H2053096   4.007   0.936   1.622 -3.0703  0.0577  0.9047
 8368LIG    H2153097   4.155   0.901   1.725  0.0854 -0.1983  0.3156
 8368LIG    H2253098   4.251   1.216   2.714  1.0619  2.2976 -0.5313
 8368LIG    H2353099   4.143   1.313   2.604  0.5866 -0.2909  0.9777
 8368LIG    H2453100   4.286   1.243   2.545  0.7114  1.4930  0.5248
 8368LIG    H2553101   4.197   0.889   2.497  0.9398 -1.4997  0.3206
 8368LIG    H2653102   4.299   0.955   2.630 -0.0162  1.3429 -0.7692
 8368LIG    H2753103   4.317   1.011   2.457 -0.5551 -1.4668 -1.8117
 8368LIG    H2853104   3.922   1.217   2.683 -1.2017  1.1880  1.1496
 8368LIG    H2953105   4.037   1.214   2.827  0.8715 -1.1998 -0.3658
 8368LIG    H3053106   3.909   1.023   2.926  1.7845 -0.1143 -1.7995
 8368LIG    H3153107   3.804   1.025   2.786  2.6402 -4.1110  1.5752
 8368LIG    H3253108   4.183   1.283   2.126  0.4597 -0.9358 -0.4190
 8368LIG    H3353109   3.673   1.141   2.948 -1.0723 -0.2932  0.4644
 8368LIG    H3453110   3.736   1.269   2.852 -0.7411 -2.1839 -0.6202
 8368LIG    H3553111   4.113   0.761   1.558  0.2271  0.2575  1.0967
 8368LIG    H3653112   3.922   1.335   2.981 -0.1991  1.5958  1.2672
 8368LIG    H3753113   3.900   1.204   3.097  0.1768 -1.9078 -1.7286
 8368LIG    H3853114   3.689   1.424   3.036  2.1169  0.3914 -1.4411
 8368LIG    H3953115   3.809   1.434   3.173 -0.8817 -1.8776  2.7049
 8368LIG    H4053116   3.675   1.310   3.167 -1.8574  0.3651 -1.8009
 8369LIG     O153117   7.037   2.384   4.711  0.2892 -0.0071 -0.4568
 8369LIG     O253118   7.580   2.145   4.818  0.0983  0.8515 -0.4436
 8369LIG     O353119   7.763   2.780   5.072  0.3819  0.2281 -0.0856
 8369LIG     C153120   7.430   2.520   4.801  0.4355  0.0123 -0.4647
 8369LIG     C253121   7.406   2.375   4.764 -0.5319 -0.6675  0.5420
 8369LIG     C353122   7.309   2.570   4.895 -0.4567  0.1081 -0.0354
 8369LIG     C453123   7.269   2.347   4.704  0.1505 -0.2421 -0.1989
 8369LIG     C553124   7.155   2.400   4.792 -0.3797  0.2617 -0.8392
 8369LIG     C653125   7.171   2.548   4.836  0.0600 -0.0516 -0.2324
 8369LIG     C753126   7.569   2.517   4.878 -0.3891  0.0727  0.3581
 8369LIG     C853127   7.511   2.326   4.666 -0.5995 -0.2405 -0.9773
 8369LIG     C953128   7.590   2.653   4.944 -0.5974  0.2104  0.0574
 8369LIG    C1053129   7.808   2.181   4.376 -0.3355  0.1148  0.5678
 8369LIG    C1153130   7.599   2.218   4.700  0.2475  0.7298  0.1424
 8369LIG    C1253131   7.532   2.389   4.543  0.0465 -0.1374 -0.5490
 8369LIG    C1353132   7.710   2.239   4.475  0.1526  0.1850 -0.1993
 8369LIG    C1453133   7.782   2.218   4.225  0.1410 -0.4309 -0.5085
 8369LIG    C1553134   7.686   2.177   4.601  0.9868 -0.0700 -0.0323
 8369LIG    C1653135   7.631   2.354   4.453 -0.2008  0.3664  0.0489
 8369LIG    C1753136   7.735   2.658   4.997  0.4492  1.0500  0.3820
 8369LIG    C1853137   7.824   2.027   4.387 -0.8083 -0.3628 -0.0552
 8369LIG    C1953138   7.941   2.246   4.422 -0.4335 -0.3221 -0.8189
 8369LIG    C2053139   7.872   2.154   4.121  0.0670 -0.3423  0.1873
 8369LIG    C2153140   7.844   2.203   3.975 -0.7682 -0.3594 -0.1341
 8369LIG    C2253141   7.833   2.354   3.957  0.1621 -0.0573  0.0443
 8369LIG    C2353142   7.796   2.393   3.807 -0.3474  0.5659  0.5127
 8369LIG    C2453143   7.759   2.534   3.794  0.1609 -0.3977 -0.3509
 8369LIG     H153144   7.430   2.582   4.710  2.4794 -1.3789 -1.4828
 8369LIG     H253145   7.421   2.320   4.859 -2.7248  0.6421  1.7124
 8369LIG     H353146   7.328   2.677   4.915  1.9594 -0.5791  1.7178
 8369LIG     H453147   7.311   2.519   4.993  0.8337 -2.0126 -1.0963
 8369LIG     H553148   7.253   2.237   4.694 -1.0448 -0.3392  2.1461
 8369LIG     H653149   7.266   2.397   4.604  2.0206  0.2411 -0.0588
 8369LIG     H753150   7.149   2.337   4.883 -0.3437  0.4836 -0.6832
 8369LIG     H853151   7.149   2.612   4.748 -1.2000 -0.1058  0.0184
 8369LIG     H953152   7.094   2.573   4.912  0.5549 -1.7388  0.8762
 8369LIG    H1053153   7.649   2.497   4.804 -0.4174  2.8693 -0.5358
 8369LIG    H1153154   7.573   2.436   4.953  1.7406 -0.7057 -0.5383
 8369LIG    H1253155   7.515   2.652   5.026  0.0672  2.1489  0.7322
 8369LIG    H1353156   7.576   2.741   4.878  0.8304  1.0727  0.8631
 8369LIG    H1453157   7.473   2.476   4.518 -1.9124 -1.6715 -1.4993
 8369LIG    H1553158   7.026   2.293   4.686 -1.8255  0.2166 -0.4763
 8369LIG    H1653159   7.793   2.329   4.227  0.6349 -0.4849  1.2812
 8369LIG    H1753160   7.676   2.189   4.204  0.3283 -1.3871 -0.1784
 8369LIG    H1853161   7.746   2.092   4.632 -0.4678 -0.4404  1.9417
 8369LIG    H1953162   7.632   2.413   4.363  0.4922  1.6272  0.8441
 8369LIG    H2053163   7.753   2.568   5.061 -0.3109  1.7437  1.6142
 8369LIG    H2153164   7.801   2.644   4.909  1.3776  0.9633  1.0722
 8369LIG    H2253165   7.752   1.981   4.316 -0.3214  0.1721 -0.9076
 8369LIG    H2353166   7.794   1.972   4.479  2.1755 -1.9275  0.0945
 8369LIG    H2453167   7.928   2.008   4.354 -1.5979 -2.4965 -1.6070
 8369LIG    H2553168   7.944   2.355   4.399  0.0934 -0.0413  0.4934
 8369LIG    H2653169   8.029   2.204   4.369  2.0913  2.9276  0.4173
 8369LIG    H2753170   7.959   2.244   4.532  0.6117  1.5314 -0.9107
 8369LIG    H2853171   7.874   2.043   4.119  1.9437 -0.3585  1.0888
 8369LIG    H2953172   7.976   2.191   4.135  0.1382 -0.2758 -0.4951
 8369LIG    H3053173   7.758   2.150   3.927 -0.0123 -0.9371 -0.9047
 8369LIG    H3153174   7.929   2.165   3.913 -0.6843 -0.8540  0.2812
 8369LIG    H3253175   7.647   2.077   4.813 -0.4884  0.1472  0.8807
 8369LIG    H3353176   7.930   2.405   3.971 -0.0924  0.7226 -0.9377
 8369LIG    H3453177   7.761   2.394   4.033 -1.4738 -0.9954 -0.9455
 8369LIG    H3553178   7.858   2.773   5.085  0.2500 -0.9506  0.3391
 8369LIG    H3653179   7.720   2.327   3.762  0.6799  0.4292 -1.1047
 8369LIG    H3753180   7.885   2.360   3.749 -1.5526 -0.4818 -0.7857
 8369LIG    H3853181   7.700   2.536   3.700 -0.1657  0.4861 -0.1385
 8369LIG    H3953182   7.850   2.595   3.777 -0.4445  0.7480  0.3213
 8369LIG    H4053183   7.702   2.576   3.880  0.5704  1.5580 -0.9687
 8370LIG     O153184   5.476   0.477   2.059  0.0336  0.0434 -0.6381
 8370LIG     O253185   5.572   1.035   1.994 -0.1052  0.4215 -0.3661
 8370LIG     O353186   6.321   0.679   1.982  0.4167  0.1038 -0.5739
 8370LIG     C153187   5.822   0.699   2.052  0.1169 -0.5319 -0.3436
 8370LIG     C253188   5.691   0.782   2.042  0.0105  0.5102 -0.0511
 8370LIG     C353189   5.806   0.591   1.943 -0.1254 -0.0703 -0.3038
 8370LIG     C453190   5.569   0.695   2.064 -0.1577  0.3774 -0.2519
 8370LIG     C553191   5.556   0.561   1.987 -0.6638 -0.6073  0.2676
 8370LIG     C653192   5.688   0.491   1.975 -0.6400  0.3081 -0.1288
 8370LIG     C753193   5.952   0.782   2.012 -0.1742  0.5713 -0.1012
 8370LIG     C853194   5.680   0.887   2.154  0.1041 -0.2694  0.2405
 8370LIG     C953195   6.076   0.699   2.013  0.2308 -0.0151 -0.2305
 8370LIG    C1053196   5.625   1.188   2.464  0.3470  0.4484  0.1082
 8370LIG    C1153197   5.610   1.003   2.126  0.6793 -0.3197  0.3278
 8370LIG    C1253198   5.722   0.863   2.284 -0.5060 -0.2118 -0.6341
 8370LIG    C1353199   5.639   1.076   2.359 -0.0460 -0.0980  0.3312
 8370LIG    C1453200   5.690   1.146   2.601  0.6226 -0.3756  0.3796
 8370LIG    C1553201   5.590   1.104   2.224  0.1349  0.0084  0.1399
 8370LIG    C1653202   5.702   0.955   2.389  0.3071 -0.3569  0.0887
 8370LIG    C1753203   6.206   0.770   1.975 -0.3610  0.6144  0.2076
 8370LIG    C1853204   5.477   1.205   2.490 -0.0303 -0.2237  0.1674
 8370LIG    C1953205   5.679   1.320   2.402  0.2172  0.4822  0.1194
 8370LIG    C2053206   5.675   1.259   2.714  0.1031 -1.0927 -0.2064
 8370LIG    C2153207   5.690   1.190   2.844  0.2491  0.7473 -0.6447
 8370LIG    C2253208   5.663   1.296   2.956 -0.6108  0.4099  0.1878
 8370LIG    C2353209   5.719   1.260   3.097  0.6201 -1.3042  0.2732
 8370LIG    C2453210   5.669   1.362   3.206 -0.5582 -0.4148  0.0130
 8370LIG     H153211   5.842   0.641   2.144  0.8548 -0.1640 -0.2653
 8370LIG     H253212   5.685   0.836   1.945 -0.9191  2.1541  0.8688
 8370LIG     H353213   5.901   0.536   1.924 -0.4559 -1.1207  0.9400
 8370LIG     H453214   5.778   0.638   1.846 -2.1592  0.6967  0.5907
 8370LIG     H553215   5.475   0.747   2.038  0.2599  0.7567 -1.0569
 8370LIG     H653216   5.551   0.670   2.170 -3.5752  1.3448 -0.5052
 8370LIG     H753217   5.505   0.578   1.890 -0.3873  1.1731  0.3940
 8370LIG     H853218   5.711   0.446   2.073 -2.9165 -0.5589  0.0574
 8370LIG     H953219   5.680   0.408   1.901 -1.2688 -0.1401  0.4410
 8370LIG    H1053220   5.941   0.870   2.080  0.3887 -0.4364  1.3527
 8370LIG    H1153221   5.927   0.812   1.908 -0.2742 -3.7809 -1.5308
 8370LIG    H1253222   6.075   0.612   1.944  1.6233 -0.9426  0.8471
 8370LIG    H1353223   6.094   0.662   2.117  2.9478  0.2025 -0.5299
 8370LIG    H1453224   5.764   0.765   2.301 -1.6334 -0.6410 -0.2136
 8370LIG    H1553225   5.400   0.464   2.002  0.1129  1.4222 -1.1151
 8370LIG    H1653226   5.799   1.131   2.584  0.9123 -0.3785  2.0711
 8370LIG    H1753227   5.639   1.055   2.638  1.7159 -0.1142  2.7433
 8370LIG    H1853228   5.543   1.196   2.193  1.7387  0.8115 -0.0222
 8370LIG    H1953229   5.742   0.920   2.484  1.1804  0.5612  0.0720
 8370LIG    H2053230   6.196   0.806   1.870 -1.8666 -0.3802 -0.0147
 8370LIG    H2153231   6.238   0.854   2.041  1.0584  0.0309  0.3087
 8370LIG    H2253232   5.453   1.139   2.576  1.7958 -1.2448 -0.0276
 8370LIG    H2353233   5.414   1.167   2.407  1.1576  0.8639 -1.2970
 8370LIG    H2453234   5.453   1.310   2.515 -2.0003 -1.0834  2.2253
 8370LIG    H2553235   5.782   1.324   2.362  0.0581  0.1833 -0.3338
 8370LIG    H2653236   5.667   1.394   2.484 -2.1824 -0.7127  0.9819
 8370LIG    H2753237   5.611   1.347   2.318  1.3400  1.6723 -0.4217
 8370LIG    H2853238   5.572   1.298   2.726 -0.1283 -0.6053 -3.0833
 8370LIG    H2953239   5.749   1.339   2.693 -0.6177 -0.2714  0.3761
 8370LIG    H3053240   5.795   1.158   2.864 -0.5340 -1.2471  0.4756
 8370LIG    H3153241   5.622   1.106   2.867  1.4729 -0.4690 -1.3182
 8370LIG    H3253242   5.581   0.957   1.939 -0.4154  1.2476 -1.6231
 8370LIG    H3353243   5.558   1.323   2.980 -0.4903 -0.5079  1.8650
 8370LIG    H3453244   5.709   1.391   2.921 -1.9042  1.3564  0.9700
 8370LIG    H3553245   6.390   0.734   1.943  0.4299 -0.0716 -0.7961
 8370LIG    H3653246   5.830   1.255   3.093  0.6144 -0.6319 -1.4329
 8370LIG    H3753247   5.672   1.164   3.127 -1.8525 -0.2748 -0.0219
 8370LIG    H3853248   5.680   1.460   3.155  1.7363 -1.6189 -2.0198
 8370LIG    H3953249   5.740   1.353   3.291  0.7384  0.4619 -0.9357
 8370LIG    H4053250   5.565   1.350   3.244 -0.8686  0.8767 -0.3786
 8371LIG     O153251   3.335   6.300   2.233  0.5971  0.3187 -0.0392
 8371LIG     O253252   3.914   6.243   2.205 -0.6658  0.0432 -0.3565
 8371LIG     O353253   3.942   5.701   2.124 -0.4466  0.1733 -0.4398
 8371LIG     C153254   3.604   5.992   2.343 -0.1699 -0.1160  0.3549
 8371LIG     C253255   3.667   6.128   2.297 -0.1226  0.3501 -0.1417
 8371LIG     C353256   3.494   5.961   2.240  0.6080  0.6743  0.8842
 8371LIG     C453257   3.555   6.243   2.289 -0.4233  0.2232 -0.0223
 8371LIG     C553258   3.438   6.207   2.206  0.3078  0.2115 -0.3697
 8371LIG     C653259   3.381   6.066   2.235 -0.2537  0.0299  0.7843
 8371LIG     C753260   3.705   5.878   2.363 -0.6384 -0.5792  0.2597
 8371LIG     C853261   3.775   6.176   2.392  0.1209  0.1415 -0.2284
 8371LIG     C953262   3.783   5.838   2.234 -0.7025  0.1634  0.1533
 8371LIG    C1053263   4.097   6.281   2.673 -0.6194  0.5209 -0.2342
 8371LIG    C1153264   3.898   6.222   2.344  0.3934  0.0496  0.3712
 8371LIG    C1253265   3.754   6.188   2.529  0.2206 -0.0605  0.8842
 8371LIG    C1353266   3.980   6.261   2.569  0.0092  0.4500 -1.1183
 8371LIG    C1453267   4.058   6.393   2.772  0.0042 -0.0076  0.4179
 8371LIG    C1553268   4.000   6.257   2.433 -0.7677  0.5146 -0.1077
 8371LIG    C1653269   3.853   6.232   2.619  0.1910  0.8064  0.2574
 8371LIG    C1753270   3.900   5.734   2.250 -0.5314  0.2772 -0.3443
 8371LIG    C1853271   4.227   6.321   2.606  0.0526 -0.0748  0.0871
 8371LIG    C1953272   4.108   6.148   2.752 -0.1787  0.0238  0.4324
 8371LIG    C2053273   4.008   6.525   2.712  0.2584 -0.1390  0.0705
 8371LIG    C2153274   3.974   6.634   2.820 -0.0459  0.7953 -0.5989
 8371LIG    C2253275   3.920   6.763   2.759 -0.6884  0.4073 -0.3870
 8371LIG    C2353276   3.915   6.889   2.854 -0.8638  0.2008 -0.5065
 8371LIG    C2453277   3.856   6.852   2.988  0.1574  0.9360 -0.0732
 8371LIG     H153278   3.546   6.008   2.437 -0.5372 -0.0977  0.1263
 8371LIG     H253279   3.709   6.112   2.195  0.7117  1.2860  0.0310
 8371LIG     H353280   3.449   5.868   2.281  0.9299  0.9647  1.9350
 8371LIG     H453281   3.539   5.934   2.142  1.4195  0.5025  1.2935
 8371LIG     H553282   3.604   6.328   2.237  0.0486 -0.2662 -0.3712
 8371LIG     H653283   3.527   6.278   2.391  0.5720  2.9867 -0.5917
 8371LIG     H753284   3.463   6.207   2.098  0.8436 -0.4528 -0.2505
 8371LIG     H853285   3.322   6.062   2.328  1.0366 -0.2667  1.6201
 8371LIG     H953286   3.315   6.034   2.151  0.8608 -1.3172  0.3808
 8371LIG    H1053287   3.648   5.792   2.405 -0.7376 -0.3465  0.6043
 8371LIG    H1153288   3.783   5.899   2.439 -0.7377 -1.5104  0.6360
 8371LIG    H1253289   3.830   5.932   2.199  0.1950  0.0350  0.9435
 8371LIG    H1353290   3.709   5.807   2.158 -1.4258  0.0182  0.8975
 8371LIG    H1453291   3.654   6.164   2.559  0.6598 -0.7071  1.9029
 8371LIG    H1553292   3.261   6.271   2.179 -0.9963 -0.3338  2.3568
 8371LIG    H1653293   4.150   6.424   2.827  0.0522  0.7505 -0.0593
 8371LIG    H1753294   4.004   6.346   2.856  1.7366 -0.0024  1.5856
 8371LIG    H1853295   4.096   6.283   2.391 -0.3373  2.0510  1.6899
 8371LIG    H1953296   3.817   6.254   2.718 -1.9363  0.2298 -0.3361
 8371LIG    H2053297   3.975   5.776   2.320  0.1767  0.3149 -1.1121
 8371LIG    H2153298   3.863   5.646   2.306 -2.1628  1.3644  0.3475
 8371LIG    H2253299   4.206   6.415   2.551  0.7614  0.6368  0.9893
 8371LIG    H2353300   4.261   6.247   2.530 -0.3887  2.1411 -2.3731
 8371LIG    H2453301   4.309   6.330   2.681  1.0346 -0.8787 -0.8610
 8371LIG    H2553302   4.154   6.073   2.685  0.0483  1.7918 -1.4741
 8371LIG    H2653303   4.010   6.106   2.785 -1.7850  1.0516 -2.6756
 8371LIG    H2753304   4.177   6.173   2.836  2.1644 -0.2047 -1.3309
 8371LIG    H2853305   3.911   6.492   2.669  0.2454  0.5700 -0.4647
 8371LIG    H2953306   4.067   6.569   2.628  1.2328  1.7863  1.6778
 8371LIG    H3053307   4.060   6.660   2.885 -1.6617  0.5165  1.7707
 8371LIG    H3153308   3.896   6.590   2.887  0.5487  0.5967 -0.0359
 8371LIG    H3253309   4.003   6.274   2.189 -0.4707 -1.1130 -1.7367
 8371LIG    H3353310   3.818   6.742   2.721 -0.2471 -0.2149 -1.2809
 8371LIG    H3453311   3.997   6.788   2.682  0.0847 -0.6435  0.0212
 8371LIG    H3553312   3.996   5.777   2.100  0.1088  0.1923  0.8016
 8371LIG    H3653313   3.860   6.971   2.802  0.6673  0.6792 -1.4290
 8371LIG    H3753314   4.018   6.928   2.863 -0.5152 -0.8476  0.2238
 8371LIG    H3853315   3.918   6.771   3.032  1.8981  1.1009 -2.0846
 8371LIG    H3953316   3.753   6.812   2.979  0.9895 -1.7643  1.4124
 8371LIG    H4053317   3.850   6.941   3.055  1.2185  1.3414 -0.4883
   8.53515   8.53515   7.07098
